1.45 	0 	0 	-0.0351912 	-0.0170252 	4.29925e-21
2.35 	0 	0 	0.239435 	-0.0186617 	-1.13236e-21
