1.45 	0 	0 	0.0857924 	-0.0284946 	3.23164e-21
2.35 	0 	0 	0.499308 	-0.0171382 	-1.63056e-21
