1.45 	0 	0 	0.0376374
2.35 	0 	0 	0.0159649
