1.45 	0 	0 	-0.300827
2.35 	0 	0 	0.00893743
