1.45 	0 	0 	-0.0123966 	-0.0195247 	4.11287e-21
2.35 	0 	0 	0.300135 	-0.0187769 	-1.39764e-21
