1.45 	0 	0 	0.0641076
2.35 	0 	0 	0.00272231
