1.45 	0 	0 	-0.342593
2.35 	0 	0 	-0.0588855
