1.45 	0 	0 	0.507076 	-0.0357394 	-1.17435e-22
2.35 	0 	0 	0.836699 	-0.00733999 	-6.32473e-22
