# Probe 0 (1 0 0)
# Probe 1 (7 0 0)
#       Probe             0             1
#        Time
         0.01      -21.6176     -0.207759
         0.02        0.1099   -0.00440627
         0.03      0.122267   -0.00349121
         0.04      0.124359   -0.00335011
         0.05      0.126934   -0.00307467
         0.06      0.129529   -0.00281708
         0.07      0.132048   -0.00257565
         0.08      0.134422   -0.00235066
         0.09      0.136605   -0.00214116
          0.1      0.138572   -0.00194622
         0.11       0.14031   -0.00176522
         0.12      0.141818    -0.0015978
         0.13      0.143098   -0.00144166
         0.14      0.144158   -0.00129621
         0.15      0.145043   -0.00115957
         0.16      0.145707   -0.00103218
         0.17      0.146179  -0.000911969
         0.18      0.146472  -0.000803232
         0.19      0.146605  -0.000701652
          0.2      0.146589  -0.000607117
         0.21      0.146434  -0.000518626
         0.22      0.146149  -0.000435875
         0.23      0.145745  -0.000358977
         0.24      0.145233  -0.000287292
         0.25       0.14465  -0.000213932
         0.26       0.14393  -0.000151569
         0.27      0.143126  -9.30808e-05
         0.28      0.142241  -3.86583e-05
         0.29       0.14128   1.22307e-05
          0.3      0.140248   5.98768e-05
         0.31      0.139148   0.000104527
         0.32      0.137984   0.000146405
         0.33      0.136758   0.000185714
         0.34      0.135471   0.000222636
         0.35      0.134126   0.000256893
         0.36      0.132725   0.000290682
         0.37      0.131265   0.000320848
         0.38      0.129751   0.000349896
         0.39      0.128191   0.000374443
          0.4      0.126567   0.000399877
         0.41      0.124888   0.000424459
         0.42      0.123154   0.000447606
         0.43      0.121364   0.000469462
         0.44      0.119529   0.000488802
         0.45      0.117627   0.000507476
         0.46      0.115666   0.000526101
         0.47      0.113647   0.000543771
         0.48       0.11157    0.00056036
         0.49      0.109433   0.000576731
          0.5       0.10724   0.000591099
         0.51      0.104983   0.000605737
         0.52      0.102667   0.000619801
         0.53      0.100295   0.000634503
         0.54     0.0978555   0.000646332
         0.55     0.0953547   0.000658583
         0.56     0.0927922   0.000670305
         0.57      0.090168   0.000681529
         0.58     0.0874821   0.000692412
         0.59     0.0847386   0.000702689
          0.6     0.0819312   0.000713326
         0.61     0.0790619   0.000722659
         0.62     0.0761324    0.00073172
         0.63     0.0731435   0.000740495
         0.64     0.0700956   0.000748755
         0.65       0.06699   0.000756773
         0.66     0.0638276   0.000764464
         0.67     0.0606095   0.000771845
         0.68     0.0573368    0.00077893
         0.69     0.0540165   0.000786588
          0.7     0.0506386   0.000793124
         0.71     0.0472107   0.000799416
         0.72      0.043734   0.000805424
         0.73     0.0402101    0.00081122
         0.74     0.0366409   0.000816786
         0.75      0.033028   0.000822125
         0.76     0.0293734   0.000827247
         0.77     0.0256788   0.000832163
         0.78     0.0219462   0.000836869
         0.79     0.0181776   0.000841381
          0.8      0.014375    0.00084571
         0.81     0.0105404   0.000849857
         0.82    0.00667587   0.000853828
         0.83    0.00278344   0.000857628
         0.84   -0.00113479   0.000861261
         0.85   -0.00507671   0.000864732
         0.86   -0.00904022   0.000868045
         0.87    -0.0130232   0.000871205
         0.88    -0.0170237   0.000874213
         0.89    -0.0210395   0.000877075
          0.9    -0.0250686   0.000879791
         0.91    -0.0291089   0.000882365
         0.92    -0.0331584   0.000884801
         0.93    -0.0372151   0.000887102
         0.94     -0.041277   0.000889269
         0.95    -0.0453421   0.000891304
         0.96    -0.0494084   0.000893209
         0.97     -0.053474   0.000894986
         0.98    -0.0575371   0.000896636
         0.99    -0.0615957   0.000898162
            1     -0.065648   0.000899447
         1.01    -0.0696923   0.000900842
         1.02    -0.0737267   0.000902009
         1.03    -0.0777495   0.000903058
         1.04    -0.0817591   0.000903993
         1.05    -0.0857537   0.000904817
         1.06    -0.0897318   0.000905535
         1.07    -0.0936918    0.00090615
         1.08    -0.0976321   0.000906674
         1.09     -0.101549   0.000907987
          1.1     -0.105454   0.000905424
         1.11     -0.109318   0.000908492
         1.12     -0.113169    0.00090771
         1.13     -0.116989   0.000907768
         1.14     -0.120783   0.000907728
         1.15     -0.124547   0.000907614
         1.16     -0.128281    0.00090743
         1.17     -0.131983   0.000907131
         1.18     -0.135654   0.000906864
         1.19     -0.139291     0.0009065
          1.2     -0.142894   0.000906085
         1.21     -0.146462    0.00090596
         1.22     -0.149994   0.000905141
         1.23     -0.153489   0.000904697
         1.24     -0.156948   0.000904139
         1.25     -0.160368   0.000903545
         1.26     -0.163749   0.000902388
         1.27     -0.167091   0.000902017
         1.28     -0.170395   0.000901643
         1.29     -0.173658   0.000900824
          1.3     -0.176881   0.000900177
         1.31     -0.180063   0.000899459
         1.32     -0.183204   0.000898411
         1.33     -0.186305   0.000898224
         1.34     -0.189364   0.000897637
         1.35     -0.192381   0.000897083
         1.36     -0.195358   0.000896565
         1.37     -0.198292   0.000896088
         1.38     -0.201186   0.000895698
         1.39     -0.204038   0.000895289
          1.4      -0.20685   0.000894968
         1.41      -0.20962    0.00089471
         1.42     -0.212349    0.00089452
         1.43     -0.215038   0.000894404
         1.44     -0.217687   0.000894366
         1.45     -0.220295   0.000894412
         1.46     -0.222864   0.000894547
         1.47     -0.225394   0.000894774
         1.48     -0.227885     0.0008951
         1.49     -0.230337   0.000895528
          1.5     -0.232752   0.000896064
         1.51     -0.235128   0.000896712
         1.52     -0.237468   0.000897477
         1.53      -0.23977   0.000898365
         1.54     -0.242037   0.000899398
         1.55     -0.244268   0.000900813
         1.56     -0.246463   0.000901463
         1.57     -0.248624   0.000902892
         1.58     -0.250751   0.000904465
         1.59     -0.252845   0.000906184
          1.6     -0.254905   0.000908052
         1.61     -0.256933   0.000910072
         1.62      -0.25893   0.000912249
         1.63     -0.260895   0.000914585
         1.64     -0.262829   0.000917083
         1.65     -0.264734   0.000919748
         1.66     -0.266609   0.000922543
         1.67     -0.268455   0.000925587
         1.68     -0.270273   0.000928763
         1.69     -0.272063   0.000932118
          1.7     -0.273826   0.000935653
         1.71     -0.275563   0.000939369
         1.72     -0.277274   0.000943271
         1.73     -0.278959   0.000947358
         1.74     -0.280619   0.000951635
         1.75     -0.282256   0.000956102
         1.76     -0.283868   0.000960762
         1.77     -0.285458   0.000965617
         1.78     -0.287025    0.00097067
         1.79      -0.28857   0.000975922
          1.8     -0.290093   0.000981374
         1.81     -0.291595   0.000987029
         1.82     -0.293078   0.000992888
         1.83      -0.29454   0.000998952
         1.84     -0.295982    0.00100522
         1.85     -0.297406     0.0010117
         1.86     -0.298811    0.00101839
         1.87     -0.300199    0.00102528
         1.88     -0.301569    0.00103238
         1.89     -0.302921     0.0010397
          1.9     -0.304258    0.00104724
         1.91     -0.305578    0.00105498
         1.92     -0.306882    0.00106293
         1.93     -0.308171    0.00107109
         1.94     -0.309444    0.00107947
         1.95     -0.310704    0.00108806
         1.96     -0.311949    0.00109686
         1.97      -0.31318    0.00110588
         1.98     -0.314397    0.00111511
         1.99     -0.315601    0.00112455
            2      -0.31679    0.00113392
         2.01     -0.317969    0.00114374
         2.02     -0.319136    0.00115382
         2.03      -0.32029     0.0011641
         2.04     -0.321433    0.00117459
         2.05     -0.322564    0.00118529
         2.06     -0.323684     0.0011962
         2.07     -0.324793    0.00120731
         2.08     -0.325891    0.00121863
         2.09     -0.326979    0.00123015
          2.1     -0.328056    0.00124188
         2.11     -0.329123     0.0012538
         2.12     -0.330181    0.00126592
         2.13     -0.331228    0.00127823
         2.14     -0.332266    0.00129074
         2.15     -0.333294    0.00130343
         2.16     -0.334314    0.00131632
         2.17     -0.335324    0.00132933
         2.18     -0.336325    0.00134252
         2.19     -0.337317    0.00135609
          2.2     -0.338301    0.00136972
         2.21     -0.339276    0.00138352
         2.22     -0.340242    0.00139751
         2.23     -0.341201    0.00141166
         2.24     -0.342151    0.00142599
         2.25     -0.343093     0.0014405
         2.26     -0.344026    0.00145453
         2.27     -0.344953    0.00146961
         2.28     -0.345871    0.00148461
         2.29     -0.346783    0.00149978
          2.3     -0.347686    0.00151511
         2.31     -0.348583    0.00153047
         2.32     -0.349472    0.00154625
         2.33     -0.350353    0.00156205
         2.34     -0.351228    0.00157792
         2.35     -0.352095     0.0015941
         2.36     -0.352956    0.00161034
         2.37      -0.35381    0.00162673
         2.38     -0.354657    0.00164327
         2.39     -0.355496    0.00165962
          2.4      -0.35633    0.00167642
         2.41     -0.357157    0.00169338
         2.42     -0.357978    0.00171047
         2.43     -0.358792     0.0017277
         2.44       -0.3596    0.00174506
         2.45     -0.360402    0.00176254
         2.46     -0.361198    0.00178016
         2.47     -0.361987    0.00179804
         2.48     -0.362771    0.00181576
         2.49     -0.363548    0.00183375
          2.5      -0.36432    0.00185185
         2.51     -0.365085    0.00187007
         2.52     -0.365845    0.00188887
         2.53     -0.366599    0.00190682
         2.54     -0.367348    0.00192538
         2.55     -0.368091    0.00194405
         2.56     -0.368828    0.00196282
         2.57     -0.369567    0.00197849
         2.58     -0.370277    0.00200406
         2.59        -0.371    0.00202154
          2.6     -0.371726    0.00203754
         2.61     -0.372426    0.00205938
         2.62     -0.373138    0.00207665
         2.63     -0.373833    0.00209658
         2.64     -0.374526    0.00211662
         2.65     -0.375214    0.00213635
         2.66     -0.375897    0.00215611
         2.67     -0.376574    0.00217598
         2.68     -0.377246    0.00219593
         2.69     -0.377913    0.00221597
          2.7     -0.378575     0.0022361
         2.71     -0.379232    0.00225631
         2.72     -0.379883     0.0022766
         2.73     -0.380529    0.00229709
         2.74      -0.38117    0.00231742
         2.75     -0.381806    0.00233795
         2.76     -0.382436    0.00235827
         2.77     -0.383061    0.00237912
         2.78     -0.383681    0.00239995
         2.79     -0.384296    0.00242079
          2.8     -0.384905    0.00244169
         2.81      -0.38551    0.00246266
         2.82     -0.386109     0.0024837
         2.83     -0.386703     0.0025048
         2.84     -0.387292    0.00252597
         2.85     -0.387875     0.0025472
         2.86     -0.388453    0.00256849
         2.87     -0.389026    0.00258984
         2.88     -0.389594    0.00261125
         2.89     -0.390156    0.00263272
          2.9     -0.390713    0.00265424
         2.91     -0.391265    0.00267582
         2.92     -0.391811    0.00269745
         2.93     -0.392352    0.00271914
         2.94     -0.392887    0.00274087
         2.95     -0.393417    0.00276265
         2.96     -0.393941    0.00278449
         2.97      -0.39446    0.00280636
         2.98     -0.394974    0.00282829
         2.99     -0.395482    0.00285026
            3     -0.395984    0.00287229
         3.01     -0.396481    0.00289438
         3.02     -0.396972    0.00291642
         3.03     -0.397458    0.00293855
         3.04     -0.397938    0.00296082
         3.05     -0.398413    0.00298304
         3.06     -0.398881    0.00300518
         3.07     -0.399344    0.00302747
         3.08     -0.399802    0.00304979
         3.09     -0.400254    0.00307215
          3.1       -0.4007    0.00309454
         3.11      -0.40114    0.00311696
         3.12     -0.401575    0.00313941
         3.13     -0.402004    0.00316189
         3.14     -0.402427    0.00318441
         3.15     -0.402845    0.00320695
         3.16     -0.403257    0.00322952
         3.17     -0.403663    0.00325219
         3.18     -0.404063    0.00327475
         3.19     -0.404458     0.0032974
          3.2     -0.404847    0.00332008
         3.21     -0.405231    0.00334279
         3.22     -0.405608    0.00336552
         3.23      -0.40598    0.00338827
         3.24     -0.406347    0.00341105
         3.25     -0.406707    0.00343385
         3.26     -0.407062    0.00345668
         3.27     -0.407412    0.00347952
         3.28     -0.407756    0.00350239
         3.29     -0.408094    0.00352528
          3.3     -0.408427    0.00354819
         3.31     -0.408754    0.00357113
         3.32     -0.409075    0.00359408
         3.33     -0.409391    0.00361705
         3.34     -0.409702    0.00364005
         3.35     -0.410007    0.00366306
         3.36     -0.410306     0.0036861
         3.37     -0.410601    0.00370915
         3.38     -0.410889    0.00373223
         3.39     -0.411173    0.00375532
          3.4     -0.411451    0.00377843
         3.41     -0.411724    0.00380156
         3.42     -0.411991    0.00382472
         3.43     -0.412254    0.00384789
         3.44     -0.412511    0.00387108
         3.45     -0.412763    0.00389429
         3.46      -0.41301    0.00391751
         3.47     -0.413252    0.00394076
         3.48     -0.413488    0.00396403
         3.49      -0.41372    0.00398732
          3.5     -0.413947    0.00401063
         3.51     -0.414169    0.00403395
         3.52     -0.414385     0.0040573
         3.53     -0.414598    0.00408067
         3.54     -0.414805    0.00410406
         3.55     -0.415007    0.00412747
         3.56     -0.415205     0.0041509
         3.57     -0.415398    0.00417436
         3.58     -0.415586    0.00419783
         3.59      -0.41577    0.00422133
          3.6     -0.415949    0.00424485
         3.61     -0.416123    0.00426839
         3.62     -0.416293    0.00429196
         3.63     -0.416459    0.00431555
         3.64      -0.41662    0.00433917
         3.65     -0.416776    0.00436295
         3.66     -0.416929    0.00438662
         3.67     -0.417077    0.00441032
         3.68     -0.417221    0.00443404
         3.69      -0.41736    0.00445778
          3.7     -0.417496    0.00448155
         3.71     -0.417627    0.00450535
         3.72     -0.417755    0.00452918
         3.73     -0.417878    0.00455303
         3.74     -0.417997    0.00457692
         3.75     -0.418113    0.00460083
         3.76     -0.418224    0.00462477
         3.77     -0.418332    0.00464875
         3.78     -0.418436    0.00467277
         3.79     -0.418536    0.00469678
          3.8     -0.418632    0.00472086
         3.81     -0.418724    0.00474496
         3.82     -0.418813    0.00476909
         3.83     -0.418899    0.00479327
         3.84      -0.41898    0.00481747
         3.85     -0.419059    0.00484171
         3.86     -0.419133    0.00486598
         3.87     -0.419205     0.0048903
         3.88     -0.419273    0.00491464
         3.89     -0.419337    0.00493903
          3.9     -0.419398    0.00496345
         3.91     -0.419456    0.00498791
         3.92     -0.419511    0.00501242
         3.93     -0.419562    0.00503695
         3.94     -0.419611    0.00506153
         3.95     -0.419656    0.00508615
         3.96     -0.419698    0.00511081
         3.97     -0.419737    0.00513552
         3.98     -0.419773    0.00516026
         3.99     -0.419806    0.00518504
            4     -0.419836    0.00520987
         4.01     -0.419863    0.00523482
         4.02     -0.419887    0.00525966
         4.03     -0.419908    0.00528462
         4.04     -0.419927    0.00530962
         4.05     -0.419943    0.00533467
         4.06     -0.419956    0.00535976
         4.07     -0.419967     0.0053849
         4.08     -0.419974    0.00541008
         4.09     -0.419979    0.00543531
          4.1     -0.419983    0.00546058
         4.11     -0.419982    0.00548581
         4.12      -0.41998    0.00551119
         4.13     -0.419975    0.00553661
         4.14     -0.419967    0.00556208
         4.15     -0.419957    0.00558757
         4.16     -0.419945    0.00561316
         4.17      -0.41993    0.00563878
         4.18     -0.419913    0.00566444
         4.19     -0.419894    0.00569016
          4.2     -0.419873    0.00571592
         4.21     -0.419849    0.00574174
         4.22     -0.419823     0.0057676
         4.23     -0.419795    0.00579352
         4.24     -0.419764    0.00581948
         4.25     -0.419732     0.0058455
         4.26     -0.419697    0.00587157
         4.27     -0.419661    0.00589788
         4.28     -0.419622    0.00592388
         4.29     -0.419582     0.0059501
          4.3     -0.419539    0.00597639
         4.31     -0.419495    0.00600272
         4.32     -0.419448    0.00602911
         4.33       -0.4194    0.00605555
         4.34      -0.41935    0.00608204
         4.35     -0.419298    0.00610858
         4.36     -0.419244    0.00613518
         4.37     -0.419188    0.00616184
         4.38     -0.419131    0.00618854
         4.39     -0.419072    0.00621531
          4.4     -0.419011    0.00624212
         4.41     -0.418949    0.00626899
         4.42     -0.418885    0.00629592
         4.43     -0.418819     0.0063229
         4.44     -0.418752    0.00634993
         4.45     -0.418683    0.00637702
         4.46     -0.418613    0.00640417
         4.47     -0.418541    0.00643137
         4.48     -0.418467    0.00645862
         4.49     -0.418393    0.00648593
          4.5     -0.418317     0.0065141
         4.51     -0.418239    0.00654098
         4.52      -0.41816    0.00656845
         4.53      -0.41808    0.00659598
         4.54     -0.417998    0.00662358
         4.55     -0.417915    0.00665122
         4.56     -0.417831    0.00667893
         4.57     -0.417745    0.00670668
         4.58     -0.417658     0.0067345
         4.59      -0.41757    0.00676237
          4.6      -0.41748     0.0067903
         4.61      -0.41739    0.00681828
         4.62     -0.417298    0.00684632
         4.63     -0.417205    0.00687442
         4.64     -0.417111    0.00690257
         4.65     -0.417016    0.00693078
         4.66      -0.41692    0.00695904
         4.67     -0.416823    0.00698736
         4.68     -0.416725    0.00701574
         4.69     -0.416626    0.00704417
          4.7     -0.416525    0.00707265
         4.71     -0.416424    0.00710122
         4.72     -0.416322    0.00712981
         4.73     -0.416219    0.00715847
         4.74     -0.416115    0.00718718
         4.75      -0.41601    0.00721595
         4.76     -0.415904    0.00724466
         4.77     -0.415798    0.00727376
         4.78      -0.41569    0.00730269
         4.79     -0.415582    0.00733168
          4.8     -0.415473    0.00736073
         4.81     -0.415363    0.00738983
         4.82     -0.415252    0.00741899
         4.83     -0.415141     0.0074482
         4.84     -0.415028    0.00747747
         4.85     -0.414916    0.00750679
         4.86     -0.414802    0.00753616
         4.87     -0.414688    0.00756559
         4.88     -0.414573    0.00759507
         4.89     -0.414457    0.00762461
          4.9     -0.414341     0.0076542
         4.91     -0.414224    0.00768384
         4.92     -0.414106    0.00771354
         4.93     -0.413988    0.00774329
         4.94      -0.41387    0.00777309
         4.95     -0.413751    0.00780294
         4.96     -0.413631    0.00783284
         4.97     -0.413511     0.0078628
         4.98      -0.41339    0.00789281
         4.99     -0.413268    0.00792287
            5     -0.413147    0.00795298
