# Probe 0 (1 0 0)
# Probe 1 (7 0 0)
#       Probe             0             1
#        Time
         0.01             (0.765435 -0.0218789 1.41959e-18)             (0.998491 -5.95427e-05 2.29439e-21)
         0.02             (0.762412 -0.0222753 -6.96249e-21)             (0.998467 -5.30845e-05 4.64393e-23)
         0.03             (0.758839 -0.0225699 -7.89054e-21)             (0.998433 -5.36294e-05 3.83301e-23)
         0.04             (0.755261 -0.0228693 -8.03966e-21)             (0.998402 -5.40502e-05 3.67678e-23)
         0.05             (0.751679 -0.0231728 -8.22085e-21)             (0.998373 -5.44163e-05 3.37477e-23)
         0.06             (0.748096 -0.0234802 -8.40302e-21)             (0.998346 -5.47337e-05 3.09178e-23)
         0.07             (0.744513 -0.0237918 -8.57976e-21)             (0.99832 -5.50166e-05 2.82628e-23)
         0.08             (0.740931 -0.0241078 -8.74635e-21)             (0.998295 -5.52579e-05 2.57879e-23)
         0.09             (0.737347 -0.0244284 -8.89979e-21)             (0.998271 -5.5466e-05 2.34827e-23)
          0.1             (0.733761 -0.0247541 -9.03834e-21)             (0.998249 -5.56428e-05 2.13381e-23)
         0.11             (0.730169 -0.0250853 -9.16118e-21)             (0.998228 -5.57972e-05 1.93469e-23)
         0.12             (0.72657 -0.0254224 -9.26815e-21)             (0.998207 -5.59254e-05 1.7505e-23)
         0.13             (0.722958 -0.0257658 -9.35949e-21)             (0.998188 -5.60324e-05 1.57875e-23)
         0.14             (0.719333 -0.0261159 -9.4357e-21)             (0.998169 -5.61215e-05 1.41878e-23)
         0.15             (0.715688 -0.0264733 -9.49982e-21)             (0.998151 -5.62042e-05 1.2686e-23)
         0.16             (0.712022 -0.0268388 -9.54867e-21)             (0.998134 -5.62694e-05 1.12858e-23)
         0.17             (0.708332 -0.027212 -9.58401e-21)             (0.998117 -5.63163e-05 9.96373e-24)
         0.18             (0.704612 -0.0275934 -9.60714e-21)             (0.998101 -5.63602e-05 8.76895e-24)
         0.19             (0.70086 -0.0279835 -9.6191e-21)             (0.998086 -5.63915e-05 7.65173e-24)
          0.2             (0.697072 -0.0283825 -9.62062e-21)             (0.998071 -5.64211e-05 6.61282e-24)
         0.21             (0.693245 -0.0287906 -9.61244e-21)             (0.998056 -5.64434e-05 5.64005e-24)
         0.22             (0.689376 -0.0292082 -9.59511e-21)             (0.998042 -5.64644e-05 4.73094e-24)
         0.23             (0.685461 -0.0296355 -9.56944e-21)             (0.998028 -5.64813e-05 3.88573e-24)
         0.24             (0.681497 -0.0300725 -9.53601e-21)             (0.998015 -5.64969e-05 3.09825e-24)
         0.25             (0.677481 -0.0305193 -9.49748e-21)             (0.998001 -5.65127e-05 2.29365e-24)
         0.26             (0.673411 -0.0309761 -9.44932e-21)             (0.997989 -5.65301e-05 1.60857e-24)
         0.27             (0.669283 -0.0314429 -9.39505e-21)             (0.997976 -5.6547e-05 9.65891e-25)
         0.28             (0.665095 -0.0319199 -9.33494e-21)             (0.997964 -5.65656e-05 3.67937e-25)
         0.29             (0.660845 -0.0324069 -9.26933e-21)             (0.997952 -5.65864e-05 -1.91154e-25)
          0.3             (0.65653 -0.0329038 -9.19852e-21)             (0.99794 -5.66099e-05 -7.14578e-25)
         0.31             (0.652148 -0.0334106 -9.12275e-21)             (0.997928 -5.66365e-05 -1.20505e-24)
         0.32             (0.647697 -0.0339271 -9.04223e-21)             (0.997916 -5.66666e-05 -1.66504e-24)
         0.33             (0.643175 -0.034453 -8.9571e-21)             (0.997905 -5.67006e-05 -2.09679e-24)
         0.34             (0.63858 -0.0349881 -8.86752e-21)             (0.997894 -5.67387e-05 -2.5023e-24)
         0.35             (0.633911 -0.0355322 -8.77355e-21)             (0.997882 -5.67797e-05 -2.87854e-24)
         0.36             (0.629166 -0.0360849 -8.67547e-21)             (0.997871 -5.68281e-05 -3.24954e-24)
         0.37             (0.624344 -0.0366458 -8.57298e-21)             (0.99786 -5.68801e-05 -3.58082e-24)
         0.38             (0.619444 -0.0372145 -8.46642e-21)             (0.99785 -5.69368e-05 -3.8998e-24)
         0.39             (0.614466 -0.0377907 -8.35634e-21)             (0.997839 -5.69976e-05 -4.17042e-24)
          0.4             (0.609407 -0.0383739 -8.24156e-21)             (0.997828 -5.70654e-05 -4.44949e-24)
         0.41             (0.604269 -0.0389635 -8.12267e-21)             (0.997818 -5.71383e-05 -4.71947e-24)
         0.42             (0.599049 -0.0395589 -7.99963e-21)             (0.997807 -5.72164e-05 -4.97363e-24)
         0.43             (0.593749 -0.0401596 -7.87242e-21)             (0.997797 -5.73002e-05 -5.21351e-24)
         0.44             (0.588368 -0.040765 -7.74178e-21)             (0.997786 -5.73897e-05 -5.42633e-24)
         0.45             (0.582906 -0.0413744 -7.6062e-21)             (0.997776 -5.74832e-05 -5.63214e-24)
         0.46             (0.577364 -0.0419874 -7.46621e-21)             (0.997765 -5.75826e-05 -5.83638e-24)
         0.47             (0.571742 -0.0426031 -7.3219e-21)             (0.997755 -5.76875e-05 -6.03049e-24)
         0.48             (0.566041 -0.043221 -7.17324e-21)             (0.997745 -5.77964e-05 -6.21286e-24)
         0.49             (0.560261 -0.0438405 -7.02016e-21)             (0.997734 -5.79108e-05 -6.39249e-24)
          0.5             (0.554404 -0.0444608 -6.86286e-21)             (0.997724 -5.80303e-05 -6.55115e-24)
         0.51             (0.548471 -0.0450814 -6.70086e-21)             (0.997714 -5.81568e-05 -6.71168e-24)
         0.52             (0.542463 -0.0457015 -6.5344e-21)             (0.997703 -5.82836e-05 -6.86677e-24)
         0.53             (0.536381 -0.0463204 -6.36379e-21)             (0.997693 -5.84171e-05 -7.02698e-24)
         0.54             (0.530227 -0.0469375 -6.18822e-21)             (0.997683 -5.85566e-05 -7.15751e-24)
         0.55             (0.524002 -0.0475521 -6.00806e-21)             (0.997672 -5.87011e-05 -7.29207e-24)
         0.56             (0.517709 -0.0481636 -5.82332e-21)             (0.997662 -5.88504e-05 -7.42086e-24)
         0.57             (0.511349 -0.0487713 -5.63399e-21)             (0.997652 -5.90043e-05 -7.54419e-24)
         0.58             (0.504925 -0.0493746 -5.44007e-21)             (0.997641 -5.91674e-05 -7.66383e-24)
         0.59             (0.498438 -0.0499729 -5.24186e-21)             (0.997631 -5.93271e-05 -7.77605e-24)
          0.6             (0.49189 -0.0505656 -5.03889e-21)             (0.99762 -5.94982e-05 -7.89295e-24)
         0.61             (0.485284 -0.0511521 -4.83132e-21)             (0.99761 -5.96693e-05 -7.99547e-24)
         0.62             (0.478622 -0.0517318 -4.61925e-21)             (0.997599 -5.98498e-05 -8.0952e-24)
         0.63             (0.471906 -0.0523042 -4.40275e-21)             (0.997589 -6.00396e-05 -8.19181e-24)
         0.64             (0.46514 -0.0528687 -4.18184e-21)             (0.997578 -6.02274e-05 -8.2824e-24)
         0.65             (0.458325 -0.0534249 -3.95661e-21)             (0.997568 -6.042e-05 -8.37056e-24)
         0.66             (0.451464 -0.0539723 -3.72711e-21)             (0.997557 -6.0617e-05 -8.45513e-24)
         0.67             (0.444559 -0.0545104 -3.49342e-21)             (0.997547 -6.08183e-05 -8.53628e-24)
         0.68             (0.437613 -0.0550387 -3.25563e-21)             (0.997536 -6.10232e-05 -8.61417e-24)
         0.69             (0.430629 -0.055557 -3.0142e-21)             (0.997525 -6.12335e-05 -8.69793e-24)
          0.7             (0.423609 -0.0560647 -2.76845e-21)             (0.997514 -6.14472e-05 -8.76959e-24)
         0.71             (0.416556 -0.0565616 -2.51891e-21)             (0.997504 -6.16666e-05 -8.83895e-24)
         0.72             (0.409472 -0.0570472 -2.26565e-21)             (0.997493 -6.18952e-05 -8.90533e-24)
         0.73             (0.40236 -0.0575213 -2.0088e-21)             (0.997482 -6.21231e-05 -8.96879e-24)
         0.74             (0.395223 -0.0579835 -1.74847e-21)             (0.997471 -6.2355e-05 -9.03001e-24)
         0.75             (0.388063 -0.0584337 -1.48479e-21)             (0.99746 -6.25908e-05 -9.08873e-24)
         0.76             (0.380883 -0.0588714 -1.21788e-21)             (0.997449 -6.28302e-05 -9.14507e-24)
         0.77             (0.373685 -0.0592966 -9.47883e-22)             (0.997438 -6.30728e-05 -9.19911e-24)
         0.78             (0.366471 -0.059709 -6.74926e-22)             (0.997426 -6.3321e-05 -9.25094e-24)
         0.79             (0.359245 -0.0601083 -3.9915e-22)             (0.997415 -6.35745e-05 -9.30063e-24)
          0.8             (0.352009 -0.0604946 -1.20698e-22)             (0.997404 -6.38313e-05 -9.34823e-24)
         0.81             (0.344764 -0.0608675 1.60287e-22)             (0.997392 -6.40917e-05 -9.39384e-24)
         0.82             (0.337514 -0.061227 4.43658e-22)             (0.997381 -6.43558e-05 -9.43751e-24)
         0.83             (0.330261 -0.0615729 7.29267e-22)             (0.997369 -6.46238e-05 -9.4793e-24)
         0.84             (0.323006 -0.0619052 1.01696e-21)             (0.997358 -6.48955e-05 -9.51926e-24)
         0.85             (0.315753 -0.0622237 1.3066e-21)             (0.997346 -6.51712e-05 -9.55743e-24)
         0.86             (0.308503 -0.0625285 1.59802e-21)             (0.997334 -6.54506e-05 -9.59386e-24)
         0.87             (0.301258 -0.0628194 1.89107e-21)             (0.997323 -6.57339e-05 -9.62858e-24)
         0.88             (0.294022 -0.0630965 2.1856e-21)             (0.997311 -6.6021e-05 -9.66165e-24)
         0.89             (0.286794 -0.0633597 2.48147e-21)             (0.997299 -6.6312e-05 -9.69309e-24)
          0.9             (0.279579 -0.0636089 2.77851e-21)             (0.997287 -6.6607e-05 -9.72293e-24)
         0.91             (0.272377 -0.0638443 3.07657e-21)             (0.997275 -6.69061e-05 -9.75121e-24)
         0.92             (0.26519 -0.0640658 3.37552e-21)             (0.997262 -6.72093e-05 -9.77795e-24)
         0.93             (0.258021 -0.0642735 3.67519e-21)             (0.99725 -6.75163e-05 -9.80319e-24)
         0.94             (0.250871 -0.0644674 3.97543e-21)             (0.997238 -6.78272e-05 -9.82695e-24)
         0.95             (0.243742 -0.0646475 4.2761e-21)             (0.997225 -6.81419e-05 -9.84925e-24)
         0.96             (0.236635 -0.0648139 4.57706e-21)             (0.997213 -6.84604e-05 -9.8701e-24)
         0.97             (0.229553 -0.0649667 4.87814e-21)             (0.9972 -6.87828e-05 -9.88954e-24)
         0.98             (0.222497 -0.0651059 5.17922e-21)             (0.997188 -6.91091e-05 -9.90757e-24)
         0.99             (0.215468 -0.0652317 5.48015e-21)             (0.997175 -6.94393e-05 -9.92422e-24)
            1             (0.208468 -0.0653441 5.78078e-21)             (0.997162 -6.97696e-05 -9.93845e-24)
         1.01             (0.201499 -0.0654432 6.08099e-21)             (0.997149 -7.01082e-05 -9.95343e-24)
         1.02             (0.194562 -0.0655291 6.38063e-21)             (0.997136 -7.04508e-05 -9.9661e-24)
         1.03             (0.187659 -0.065602 6.67957e-21)             (0.997123 -7.07972e-05 -9.97747e-24)
         1.04             (0.18079 -0.0656619 6.97768e-21)             (0.997109 -7.11475e-05 -9.98757e-24)
         1.05             (0.173958 -0.065709 7.27482e-21)             (0.997096 -7.15018e-05 -9.99644e-24)
         1.06             (0.167163 -0.0657434 7.57088e-21)             (0.997083 -7.18603e-05 -1.00041e-23)
         1.07             (0.160406 -0.0657653 7.86573e-21)             (0.997069 -7.2223e-05 -1.00107e-23)
         1.08             (0.15369 -0.0657747 8.15924e-21)             (0.997055 -7.259e-05 -1.00162e-23)
         1.09             (0.147015 -0.0657718 8.45114e-21)             (0.997042 -7.29635e-05 -1.003e-23)
          1.1             (0.140382 -0.0657568 8.74221e-21)             (0.997028 -7.334e-05 -1.0002e-23)
         1.11             (0.133792 -0.0657298 9.03046e-21)             (0.997014 -7.37161e-05 -1.00357e-23)
         1.12             (0.127247 -0.065691 9.31769e-21)             (0.997 -7.41e-05 -1.00266e-23)
         1.13             (0.120747 -0.0656405 9.60284e-21)             (0.996985 -7.44882e-05 -1.00269e-23)
         1.14             (0.114294 -0.0655785 9.886e-21)             (0.996971 -7.48807e-05 -1.00261e-23)
         1.15             (0.107888 -0.0655052 1.01671e-20)             (0.996956 -7.52775e-05 -1.00246e-23)
         1.16             (0.101531 -0.0654206 1.0446e-20)             (0.996942 -7.56789e-05 -1.00222e-23)
         1.17             (0.0952232 -0.0653251 1.07226e-20)             (0.996927 -7.60897e-05 -1.00189e-23)
         1.18             (0.0889654 -0.0652187 1.09969e-20)             (0.996912 -7.64995e-05 -1.00153e-23)
         1.19             (0.0827586 -0.0651016 1.12687e-20)             (0.996897 -7.69139e-05 -1.00109e-23)
          1.2             (0.0766035 -0.064974 1.1538e-20)             (0.996882 -7.73327e-05 -1.0006e-23)
         1.21             (0.070501 -0.0648362 1.18047e-20)             (0.996867 -7.77515e-05 -1.00034e-23)
         1.22             (0.0644519 -0.0646882 1.20687e-20)             (0.996852 -7.81798e-05 -9.99481e-24)
         1.23             (0.0584567 -0.0645302 1.23301e-20)             (0.996836 -7.86177e-05 -9.98948e-24)
         1.24             (0.0525162 -0.0643625 1.25886e-20)             (0.996821 -7.90548e-05 -9.98292e-24)
         1.25             (0.046631 -0.0641852 1.28443e-20)             (0.996805 -7.94965e-05 -9.97595e-24)
         1.26             (0.0408017 -0.0639985 1.30971e-20)             (0.996789 -7.99389e-05 -9.9628e-24)
         1.27             (0.0350289 -0.0638026 1.33468e-20)             (0.996773 -8.03902e-05 -9.95828e-24)
         1.28             (0.0293132 -0.0635977 1.35937e-20)             (0.996757 -8.08499e-05 -9.95376e-24)
         1.29             (0.0236551 -0.063384 1.38376e-20)             (0.996741 -8.13109e-05 -9.9442e-24)
          1.3             (0.018055 -0.0631616 1.40783e-20)             (0.996725 -8.17767e-05 -9.93659e-24)
         1.31             (0.0125134 -0.0629308 1.43159e-20)             (0.996708 -8.22409e-05 -9.92826e-24)
         1.32             (0.00703083 -0.0626918 1.45504e-20)             (0.996691 -8.27214e-05 -9.91685e-24)
         1.33             (0.00160761 -0.0624447 1.47818e-20)             (0.996675 -8.32016e-05 -9.9137e-24)
         1.34             (-0.00375587 -0.0621898 1.501e-20)             (0.996658 -8.36867e-05 -9.90673e-24)
         1.35             (-0.00905926 -0.0619272 1.5235e-20)             (0.996641 -8.41767e-05 -9.90012e-24)
         1.36             (-0.0143022 -0.0616571 1.54568e-20)             (0.996623 -8.46716e-05 -9.89389e-24)
         1.37             (-0.0194845 -0.0613798 1.56754e-20)             (0.996606 -8.51715e-05 -9.88811e-24)
         1.38             (-0.0246058 -0.0610954 1.58908e-20)             (0.996588 -8.56713e-05 -9.88294e-24)
         1.39             (-0.0296659 -0.0608042 1.6103e-20)             (0.996571 -8.61811e-05 -9.87823e-24)
          1.4             (-0.0346646 -0.0605062 1.6312e-20)             (0.996553 -8.66959e-05 -9.87414e-24)
         1.41             (-0.0396016 -0.0602018 1.65178e-20)             (0.996535 -8.72159e-05 -9.87075e-24)
         1.42             (-0.0444769 -0.0598911 1.67204e-20)             (0.996517 -8.77409e-05 -9.86811e-24)
         1.43             (-0.0492903 -0.0595744 1.69198e-20)             (0.996499 -8.82711e-05 -9.86627e-24)
         1.44             (-0.0540417 -0.0592517 1.7116e-20)             (0.99648 -8.88064e-05 -9.86529e-24)
         1.45             (-0.058731 -0.0589233 1.73091e-20)             (0.996462 -8.93469e-05 -9.86523e-24)
         1.46             (-0.0633581 -0.0585895 1.74991e-20)             (0.996443 -8.98927e-05 -9.86613e-24)
         1.47             (-0.067923 -0.0582503 1.7686e-20)             (0.996424 -9.04436e-05 -9.86806e-24)
         1.48             (-0.0724258 -0.057906 1.78698e-20)             (0.996405 -9.09999e-05 -9.87106e-24)
         1.49             (-0.0768663 -0.0575568 1.80505e-20)             (0.996386 -9.15615e-05 -9.87519e-24)
          1.5             (-0.0812447 -0.0572028 1.82282e-20)             (0.996367 -9.21284e-05 -9.8805e-24)
         1.51             (-0.085561 -0.0568443 1.84029e-20)             (0.996347 -9.27007e-05 -9.88705e-24)
         1.52             (-0.0898153 -0.0564814 1.85747e-20)             (0.996328 -9.32785e-05 -9.89488e-24)
         1.53             (-0.0940078 -0.0561144 1.87435e-20)             (0.996308 -9.38624e-05 -9.90408e-24)
         1.54             (-0.0981384 -0.0557433 1.89095e-20)             (0.996288 -9.44528e-05 -9.91484e-24)
         1.55             (-0.102207 -0.0553685 1.90725e-20)             (0.996268 -9.50465e-05 -9.92976e-24)
         1.56             (-0.106215 -0.05499 1.92328e-20)             (0.996248 -9.56461e-05 -9.93636e-24)
         1.57             (-0.110161 -0.054608 1.93903e-20)             (0.996227 -9.62513e-05 -9.95149e-24)
         1.58             (-0.114046 -0.0542228 1.9545e-20)             (0.996207 -9.68618e-05 -9.9682e-24)
         1.59             (-0.117871 -0.0538345 1.9697e-20)             (0.996186 -9.74779e-05 -9.98651e-24)
          1.6             (-0.121635 -0.0534432 1.98464e-20)             (0.996165 -9.80994e-05 -1.00065e-23)
         1.61             (-0.125338 -0.0530492 1.99932e-20)             (0.996144 -9.87264e-05 -1.00281e-23)
         1.62             (-0.128982 -0.0526525 2.01374e-20)             (0.996123 -9.93587e-05 -1.00514e-23)
         1.63             (-0.132565 -0.0522535 2.02791e-20)             (0.996102 -9.99962e-05 -1.00765e-23)
         1.64             (-0.13609 -0.0518521 2.04184e-20)             (0.99608 -0.000100643 -1.01035e-23)
         1.65             (-0.139555 -0.0514487 2.05551e-20)             (0.996059 -0.000101295 -1.01322e-23)
         1.66             (-0.142961 -0.0510433 2.06896e-20)             (0.996037 -0.000101948 -1.01623e-23)
         1.67             (-0.146309 -0.0506361 2.08216e-20)             (0.996015 -0.000102609 -1.01953e-23)
         1.68             (-0.149599 -0.0502272 2.09514e-20)             (0.995993 -0.000103276 -1.02296e-23)
         1.69             (-0.152832 -0.0498168 2.10789e-20)             (0.995971 -0.000103949 -1.02659e-23)
          1.7             (-0.156007 -0.0494051 2.12042e-20)             (0.995948 -0.000104628 -1.03043e-23)
         1.71             (-0.159126 -0.0489922 2.13274e-20)             (0.995925 -0.000105312 -1.03446e-23)
         1.72             (-0.162188 -0.0485781 2.14485e-20)             (0.995903 -0.000106002 -1.03869e-23)
         1.73             (-0.165194 -0.0481632 2.15675e-20)             (0.99588 -0.000106699 -1.04313e-23)
         1.74             (-0.168145 -0.0477474 2.16845e-20)             (0.995857 -0.000107401 -1.04778e-23)
         1.75             (-0.17104 -0.047331 2.17995e-20)             (0.995833 -0.000108108 -1.05264e-23)
         1.76             (-0.173881 -0.046914 2.19126e-20)             (0.99581 -0.000108822 -1.05772e-23)
         1.77             (-0.176669 -0.0464965 2.20238e-20)             (0.995786 -0.000109542 -1.063e-23)
         1.78             (-0.179402 -0.0460788 2.21332e-20)             (0.995763 -0.000110268 -1.06851e-23)
         1.79             (-0.182082 -0.0456609 2.22408e-20)             (0.995739 -0.000111 -1.07424e-23)
          1.8             (-0.18471 -0.0452429 2.23466e-20)             (0.995715 -0.000111738 -1.08018e-23)
         1.81             (-0.187286 -0.044825 2.24507e-20)             (0.99569 -0.000112482 -1.08635e-23)
         1.82             (-0.18981 -0.0444071 2.25532e-20)             (0.995666 -0.000113232 -1.09275e-23)
         1.83             (-0.192283 -0.0439896 2.26541e-20)             (0.995641 -0.000113989 -1.09937e-23)
         1.84             (-0.194706 -0.0435724 2.27534e-20)             (0.995617 -0.000114751 -1.10622e-23)
         1.85             (-0.197079 -0.0431556 2.28511e-20)             (0.995592 -0.00011552 -1.1133e-23)
         1.86             (-0.199402 -0.0427394 2.29474e-20)             (0.995567 -0.000116295 -1.1206e-23)
         1.87             (-0.201676 -0.0423238 2.30422e-20)             (0.995541 -0.000117077 -1.12814e-23)
         1.88             (-0.203902 -0.041909 2.31355e-20)             (0.995516 -0.000117865 -1.13591e-23)
         1.89             (-0.20608 -0.041495 2.32275e-20)             (0.99549 -0.000118659 -1.14392e-23)
          1.9             (-0.208211 -0.0410818 2.33182e-20)             (0.995465 -0.00011946 -1.15216e-23)
         1.91             (-0.210295 -0.0406697 2.34075e-20)             (0.995439 -0.000120267 -1.16063e-23)
         1.92             (-0.212333 -0.0402586 2.34956e-20)             (0.995413 -0.000121081 -1.16934e-23)
         1.93             (-0.214326 -0.0398487 2.35825e-20)             (0.995386 -0.000121901 -1.17828e-23)
         1.94             (-0.216273 -0.0394399 2.36681e-20)             (0.99536 -0.000122728 -1.18745e-23)
         1.95             (-0.218176 -0.0390325 2.37525e-20)             (0.995333 -0.000123562 -1.19686e-23)
         1.96             (-0.220035 -0.0386264 2.38359e-20)             (0.995307 -0.000124402 -1.20651e-23)
         1.97             (-0.22185 -0.0382217 2.39181e-20)             (0.99528 -0.000125249 -1.21639e-23)
         1.98             (-0.223623 -0.0378185 2.39992e-20)             (0.995253 -0.000126103 -1.2265e-23)
         1.99             (-0.225353 -0.0374168 2.40793e-20)             (0.995225 -0.000126963 -1.23685e-23)
            2             (-0.227042 -0.0370167 2.41581e-20)             (0.995198 -0.000127831 -1.24714e-23)
         2.01             (-0.22869 -0.0366182 2.42362e-20)             (0.99517 -0.000128704 -1.25791e-23)
         2.02             (-0.230296 -0.0362215 2.43133e-20)             (0.995142 -0.000129584 -1.26896e-23)
         2.03             (-0.231863 -0.0358265 2.43894e-20)             (0.995115 -0.000130477 -1.28026e-23)
         2.04             (-0.23339 -0.0354333 2.44646e-20)             (0.995086 -0.00013137 -1.29175e-23)
         2.05             (-0.234879 -0.0350419 2.45389e-20)             (0.995058 -0.00013227 -1.30349e-23)
         2.06             (-0.236329 -0.0346524 2.46123e-20)             (0.99503 -0.000133181 -1.31547e-23)
         2.07             (-0.237741 -0.0342648 2.46849e-20)             (0.995001 -0.000134098 -1.32766e-23)
         2.08             (-0.239115 -0.0338792 2.47566e-20)             (0.994972 -0.000135022 -1.34009e-23)
         2.09             (-0.240453 -0.0334955 2.48275e-20)             (0.994943 -0.000135953 -1.35274e-23)
          2.1             (-0.241754 -0.0331139 2.48976e-20)             (0.994914 -0.000136891 -1.3656e-23)
         2.11             (-0.24302 -0.0327344 2.4967e-20)             (0.994885 -0.000137839 -1.3787e-23)
         2.12             (-0.24425 -0.0323569 2.50355e-20)             (0.994855 -0.00013879 -1.39199e-23)
         2.13             (-0.245446 -0.0319816 2.51034e-20)             (0.994825 -0.000139751 -1.40552e-23)
         2.14             (-0.246608 -0.0316084 2.51704e-20)             (0.994796 -0.00014072 -1.41926e-23)
         2.15             (-0.247735 -0.0312374 2.52368e-20)             (0.994766 -0.000141697 -1.4332e-23)
         2.16             (-0.24883 -0.0308685 2.53025e-20)             (0.994735 -0.000142682 -1.44736e-23)
         2.17             (-0.249892 -0.0305019 2.53675e-20)             (0.994705 -0.000143676 -1.46167e-23)
         2.18             (-0.250922 -0.0301376 2.54318e-20)             (0.994674 -0.000144675 -1.47616e-23)
         2.19             (-0.25192 -0.0297755 2.54954e-20)             (0.994643 -0.000145684 -1.49105e-23)
          2.2             (-0.252886 -0.0294157 2.55584e-20)             (0.994612 -0.000146701 -1.50603e-23)
         2.21             (-0.253823 -0.0290582 2.56208e-20)             (0.994581 -0.000147726 -1.5212e-23)
         2.22             (-0.254728 -0.028703 2.56826e-20)             (0.99455 -0.00014876 -1.53656e-23)
         2.23             (-0.255604 -0.0283501 2.57437e-20)             (0.994518 -0.000149801 -1.55212e-23)
         2.24             (-0.256451 -0.0279996 2.58042e-20)             (0.994487 -0.000150852 -1.56787e-23)
         2.25             (-0.257269 -0.0276514 2.58642e-20)             (0.994455 -0.000151911 -1.58381e-23)
         2.26             (-0.258059 -0.0273056 2.59235e-20)             (0.994423 -0.000152978 -1.59929e-23)
         2.27             (-0.258821 -0.0269622 2.59823e-20)             (0.99439 -0.000154054 -1.61585e-23)
         2.28             (-0.259555 -0.0266211 2.60405e-20)             (0.994358 -0.000155139 -1.63235e-23)
         2.29             (-0.260263 -0.0262825 2.60982e-20)             (0.994325 -0.000156234 -1.64902e-23)
          2.3             (-0.260944 -0.0259463 2.61554e-20)             (0.994292 -0.000157337 -1.66588e-23)
         2.31             (-0.261598 -0.0256125 2.6212e-20)             (0.994259 -0.000158451 -1.68278e-23)
         2.32             (-0.262228 -0.0252811 2.62681e-20)             (0.994226 -0.000159572 -1.70011e-23)
         2.33             (-0.262832 -0.0249521 2.63237e-20)             (0.994193 -0.000160703 -1.71748e-23)
         2.34             (-0.263411 -0.0246256 2.63788e-20)             (0.994159 -0.00016184 -1.73493e-23)
         2.35             (-0.263966 -0.0243014 2.64334e-20)             (0.994125 -0.00016299 -1.75273e-23)
         2.36             (-0.264497 -0.0239798 2.64875e-20)             (0.994091 -0.000164149 -1.77059e-23)
         2.37             (-0.265005 -0.0236605 2.65412e-20)             (0.994057 -0.000165317 -1.78862e-23)
         2.38             (-0.265489 -0.0233437 2.65943e-20)             (0.994022 -0.000166495 -1.8068e-23)
         2.39             (-0.265951 -0.0230294 2.6647e-20)             (0.993987 -0.000167685 -1.8248e-23)
          2.4             (-0.266391 -0.0227175 2.66992e-20)             (0.993952 -0.000168883 -1.84329e-23)
         2.41             (-0.266809 -0.022408 2.6751e-20)             (0.993917 -0.000170092 -1.86194e-23)
         2.42             (-0.267206 -0.022101 2.68024e-20)             (0.993882 -0.00017131 -1.88074e-23)
         2.43             (-0.267582 -0.0217964 2.68533e-20)             (0.993846 -0.000172539 -1.89969e-23)
         2.44             (-0.267937 -0.0214943 2.69038e-20)             (0.993811 -0.000173778 -1.91879e-23)
         2.45             (-0.268272 -0.0211946 2.69539e-20)             (0.993775 -0.000175028 -1.93802e-23)
         2.46             (-0.268587 -0.0208974 2.70035e-20)             (0.993738 -0.000176288 -1.9574e-23)
         2.47             (-0.268882 -0.0206025 2.70527e-20)             (0.993702 -0.000177559 -1.97706e-23)
         2.48             (-0.269159 -0.0203102 2.71016e-20)             (0.993665 -0.00017884 -1.99657e-23)
         2.49             (-0.269417 -0.0200202 2.715e-20)             (0.993628 -0.000180133 -2.01635e-23)
          2.5             (-0.269657 -0.0197327 2.71981e-20)             (0.993591 -0.000181437 -2.03627e-23)
         2.51             (-0.269879 -0.0194476 2.72457e-20)             (0.993554 -0.000182752 -2.05632e-23)
         2.52             (-0.270083 -0.0191649 2.7293e-20)             (0.993516 -0.000184079 -2.07702e-23)
         2.53             (-0.27027 -0.0188846 2.73399e-20)             (0.993478 -0.000185416 -2.09675e-23)
         2.54             (-0.270441 -0.0186067 2.73864e-20)             (0.99344 -0.000186766 -2.11717e-23)
         2.55             (-0.270595 -0.0183312 2.74326e-20)             (0.993402 -0.000188126 -2.13772e-23)
         2.56             (-0.270733 -0.0180581 2.74784e-20)             (0.993363 -0.000189497 -2.15838e-23)
         2.57             (-0.270855 -0.0177874 2.75244e-20)             (0.993325 -0.000190885 -2.17569e-23)
         2.58             (-0.270962 -0.0175191 2.75682e-20)             (0.993285 -0.000192278 -2.20368e-23)
         2.59             (-0.271054 -0.0172531 2.76131e-20)             (0.993246 -0.000193684 -2.22297e-23)
          2.6             (-0.271131 -0.0169895 2.76583e-20)             (0.993207 -0.000195107 -2.24061e-23)
         2.61             (-0.271194 -0.0167283 2.77017e-20)             (0.993167 -0.000196539 -2.26462e-23)
         2.62             (-0.271243 -0.0164694 2.77459e-20)             (0.993127 -0.000197986 -2.28364e-23)
         2.63             (-0.271278 -0.0162128 2.77889e-20)             (0.993086 -0.000199446 -2.30555e-23)
         2.64             (-0.2713 -0.0159586 2.78319e-20)             (0.993046 -0.000200917 -2.32762e-23)
         2.65             (-0.271309 -0.0157067 2.78745e-20)             (0.993005 -0.000202401 -2.34933e-23)
         2.66             (-0.271306 -0.0154571 2.79168e-20)             (0.992964 -0.000203898 -2.37108e-23)
         2.67             (-0.271289 -0.0152098 2.79588e-20)             (0.992922 -0.000205409 -2.39294e-23)
         2.68             (-0.271261 -0.0149648 2.80004e-20)             (0.99288 -0.000206932 -2.4149e-23)
         2.69             (-0.271222 -0.0147221 2.80418e-20)             (0.992838 -0.000208469 -2.43696e-23)
          2.7             (-0.27117 -0.0144816 2.80828e-20)             (0.992796 -0.00021002 -2.45911e-23)
         2.71             (-0.271108 -0.0142434 2.81234e-20)             (0.992754 -0.000211584 -2.48135e-23)
         2.72             (-0.271035 -0.0140075 2.81638e-20)             (0.992711 -0.000213163 -2.50369e-23)
         2.73             (-0.270951 -0.0137738 2.82038e-20)             (0.992668 -0.000214755 -2.52623e-23)