1.45 	0 	0 	-0.343744
2.35 	0 	0 	-0.0631009
