1.45 	0 	0 	-0.0590766 	-0.0142821 	4.48335e-21
2.35 	0 	0 	0.170482 	-0.0182071 	-7.21479e-22
