1.45 	0 	0 	0.0196276
2.35 	0 	0 	0.027917
