/*--------------------------------*- C++ -*----------------------------------*\
  =========                 |
  \\      /  F ield         | OpenFOAM: The Open Source CFD Toolbox
   \\    /   O peration     | Website:  https://openfoam.org
    \\  /    A nd           | Version:  6.0
     \\/     M anipulation  |
\*---------------------------------------------------------------------------*/
FoamFile
{
    version     2.0;
    format      ascii;
    class       volScalarField;
    location    "4";
    object      p;
}
// * * * * * * * * * * * * * * * * * * * * * * * * * * * * * * * * * * * * * //

dimensions      [0 2 -2 0 0 0 0];

internalField   nonuniform List<scalar> 
2000
(
-0.389229
-0.396181
-0.401
-0.405781
-0.410801
-0.415345
-0.418989
-0.421896
-0.423509
-0.419836
-0.392888
-0.399164
-0.403712
-0.408402
-0.41343
-0.418058
-0.421795
-0.424735
-0.426452
-0.423136
-0.399457
-0.404468
-0.408464
-0.412921
-0.417893
-0.422615
-0.42648
-0.42943
-0.431225
-0.428524
-0.407678
-0.411004
-0.41415
-0.418126
-0.422837
-0.427514
-0.431431
-0.434293
-0.435961
-0.433913
-0.416176
-0.417633
-0.419615
-0.422731
-0.426791
-0.431082
-0.434808
-0.437396
-0.438598
-0.436907
-0.423868
-0.423536
-0.424069
-0.425854
-0.428738
-0.432134
-0.435247
-0.437269
-0.437607
-0.435563
-0.430264
-0.428441
-0.427339
-0.427379
-0.4286
-0.430605
-0.432646
-0.433761
-0.432899
-0.429346
-0.435565
-0.432634
-0.429872
-0.427977
-0.427299
-0.427654
-0.428327
-0.428231
-0.426026
-0.419596
-0.440594
-0.436842
-0.432537
-0.428805
-0.426312
-0.425009
-0.424109
-0.422291
-0.418292
-0.407952
-0.446557
-0.442029
-0.436359
-0.431072
-0.427003
-0.424046
-0.42117
-0.416591
-0.408922
-0.39438
-0.454682
-0.449132
-0.442201
-0.435606
-0.430068
-0.425205
-0.419689
-0.411455
-0.398914
-0.381579
-0.465878
-0.45881
-0.45054
-0.44264
-0.435385
-0.427973
-0.418893
-0.406256
-0.389656
-0.367219
-0.480614
-0.471395
-0.461503
-0.451991
-0.442382
-0.431476
-0.417909
-0.400571
-0.379589
-0.35398
-0.499038
-0.487035
-0.475088
-0.46335
-0.450376
-0.434871
-0.416141
-0.394126
-0.369667
-0.342982
-0.521123
-0.505785
-0.491232
-0.476289
-0.458593
-0.437386
-0.413113
-0.386714
-0.359532
-0.331897
-0.54662
-0.527486
-0.509598
-0.490009
-0.466023
-0.438234
-0.408391
-0.378115
-0.348769
-0.320531
-0.57485
-0.551516
-0.52925
-0.503134
-0.471397
-0.436594
-0.401507
-0.367914
-0.336787
-0.307811
-0.604427
-0.576591
-0.548414
-0.513761
-0.473321
-0.431635
-0.391925
-0.355629
-0.323044
-0.293533
-0.633091
-0.600636
-0.56457
-0.519757
-0.470435
-0.422538
-0.37903
-0.340643
-0.306934
-0.277094
-0.657793
-0.620753
-0.574839
-0.519091
-0.461525
-0.408502
-0.362147
-0.322312
-0.287884
-0.258125
-0.67508
-0.633457
-0.576446
-0.510058
-0.445565
-0.388771
-0.340599
-0.300002
-0.265356
-0.236168
-0.681586
-0.635243
-0.567031
-0.491351
-0.421725
-0.362673
-0.313777
-0.273181
-0.238932
-0.210898
-0.674395
-0.623187
-0.544853
-0.462057
-0.38939
-0.329667
-0.281192
-0.24144
-0.208315
-0.182061
-0.651197
-0.595279
-0.508872
-0.421675
-0.348195
-0.289409
-0.242524
-0.20453
-0.173334
-0.149497
-0.610386
-0.550478
-0.458745
-0.370132
-0.298095
-0.241837
-0.197715
-0.162429
-0.134027
-0.113295
-0.551156
-0.48864
-0.394747
-0.307742
-0.239367
-0.187228
-0.14707
-0.115508
-0.0908815
-0.074119
-0.473625
-0.410432
-0.317655
-0.23509
-0.172432
-0.125981
-0.0911184
-0.0645852
-0.0450948
-0.0334585
-0.378936
-0.317313
-0.228745
-0.152981
-0.0976332
-0.0581173
-0.0298578
-0.0100703
0.00229657
0.00754815
-0.269266
-0.211553
-0.129945
-0.0627507
-0.0155516
0.016684
0.0379345
0.049928
0.0536418
0.051941
-0.147713
-0.0961617
-0.0239369
0.0332856
0.0719337
0.0973258
0.112693
0.118672
0.116731
0.111871
-0.0180596
0.0253489
0.0861377
0.13207
0.161383
0.179575
0.189542
0.191962
0.191156
0.203525
0.115473
0.14922
0.197119
0.230809
0.24983
0.2593
0.261793
0.259412
0.259316
0.272717
0.24843
0.271557
0.305807
0.32698
0.3357
0.336707
0.332296
0.324586
0.319638
0.325686
0.376371
0.3885
0.408924
0.417588
0.415994
0.408586
0.397541
0.384786
0.374967
0.37396
0.495057
0.496453
0.503655
0.500542
0.489276
0.473903
0.456312
0.438127
0.423105
0.415839
0.600546
0.592019
0.587173
0.573458
0.553553
0.531141
0.50783
0.484878
0.46511
0.451952
0.689394
0.672274
0.657114
0.634379
0.607122
0.578702
0.550509
0.523506
0.499688
0.481511
0.758691
0.734737
0.711448
0.681654
0.648664
0.615568
0.583579
0.553396
0.526319
0.504104
0.806179
0.777479
0.748579
0.713928
0.676997
0.640693
0.60611
0.573744
0.544395
0.519365
0.830315
0.799186
0.767423
0.730302
0.691366
0.653432
0.61753
0.58405
0.553528
0.527056
0.830315
0.799186
0.767423
0.730302
0.691366
0.653432
0.61753
0.584049
0.553528
0.527056
0.806179
0.77748
0.748579
0.713929
0.676997
0.640693
0.60611
0.573744
0.544395
0.519365
0.758692
0.734738
0.711449
0.681655
0.648664
0.615568
0.583579
0.553396
0.526319
0.504104
0.689395
0.672275
0.657114
0.634379
0.607122
0.578702
0.550509
0.523506
0.499688
0.481511
0.600547
0.59202
0.587174
0.573458
0.553553
0.531141
0.50783
0.484878
0.46511
0.451952
0.495058
0.496454
0.503656
0.500543
0.489276
0.473903
0.456312
0.438126
0.423105
0.415838
0.376373
0.388501
0.408925
0.417588
0.415994
0.408586
0.397541
0.384785
0.374967
0.373959
0.248432
0.271558
0.305808
0.32698
0.3357
0.336706
0.332296
0.324585
0.319637
0.325685
0.115475
0.149221
0.19712
0.230809
0.249829
0.259299
0.261793
0.259411
0.259315
0.272717
-0.0180586
0.0253496
0.086138
0.13207
0.161383
0.179574
0.189542
0.191962
0.191155
0.203524
-0.147713
-0.0961614
-0.0239369
0.0332852
0.0719331
0.097325
0.112692
0.118671
0.11673
0.11187
-0.269267
-0.211553
-0.129946
-0.0627515
-0.0155526
0.016683
0.0379334
0.0499269
0.0536408
0.0519401
-0.378937
-0.317314
-0.228746
-0.152983
-0.0976345
-0.0581186
-0.0298592
-0.0100716
0.00229534
0.00754699
-0.473627
-0.410434
-0.317656
-0.235092
-0.172434
-0.125983
-0.0911201
-0.0645868
-0.0450963
-0.03346
-0.551159
-0.488643
-0.394749
-0.307745
-0.23937
-0.187231
-0.147072
-0.11551
-0.0908833
-0.0741206
-0.61039
-0.550482
-0.458749
-0.370135
-0.298098
-0.24184
-0.197718
-0.162431
-0.134029
-0.113296
-0.651203
-0.595284
-0.508876
-0.421679
-0.348198
-0.289412
-0.242527
-0.204533
-0.173336
-0.149499
-0.674401
-0.623194
-0.544859
-0.462061
-0.389394
-0.329671
-0.281195
-0.241443
-0.208317
-0.182064
-0.681594
-0.635251
-0.567038
-0.491356
-0.42173
-0.362677
-0.313781
-0.273184
-0.238935
-0.2109
-0.675089
-0.633466
-0.576453
-0.510065
-0.44557
-0.388776
-0.340603
-0.300006
-0.265358
-0.236171
-0.657803
-0.620763
-0.574848
-0.519098
-0.461531
-0.408508
-0.362152
-0.322316
-0.287887
-0.258127
-0.633102
-0.600646
-0.564579
-0.519765
-0.470442
-0.422543
-0.379035
-0.340647
-0.306937
-0.277096
-0.604438
-0.576601
-0.548424
-0.51377
-0.473328
-0.431641
-0.39193
-0.355633
-0.323048
-0.293535
-0.574861
-0.551527
-0.52926
-0.503143
-0.471406
-0.4366
-0.401512
-0.367918
-0.33679
-0.307814
-0.546631
-0.527496
-0.509609
-0.490019
-0.466032
-0.438242
-0.408397
-0.378119
-0.348773
-0.320533
-0.521133
-0.505795
-0.491242
-0.476299
-0.458602
-0.437394
-0.41312
-0.386718
-0.359535
-0.331899
-0.499049
-0.487046
-0.475099
-0.46336
-0.450386
-0.434879
-0.416148
-0.394131
-0.369671
-0.342984
-0.480624
-0.471406
-0.461513
-0.452002
-0.442392
-0.431485
-0.417917
-0.400576
-0.379592
-0.353981
-0.465888
-0.45882
-0.45055
-0.44265
-0.435396
-0.427982
-0.418902
-0.406262
-0.389659
-0.36722
-0.454692
-0.449141
-0.442211
-0.435617
-0.430078
-0.425215
-0.419698
-0.411462
-0.398919
-0.38158
-0.446566
-0.442038
-0.436368
-0.431082
-0.427013
-0.424056
-0.421179
-0.416599
-0.408926
-0.394382
-0.440601
-0.436849
-0.432545
-0.428814
-0.426321
-0.425019
-0.424118
-0.422298
-0.418297
-0.407953
-0.43557
-0.43264
-0.429878
-0.427984
-0.427307
-0.427662
-0.428334
-0.428236
-0.426028
-0.419595
-0.430267
-0.428445
-0.427344
-0.427385
-0.428605
-0.43061
-0.432651
-0.433764
-0.432899
-0.429342
-0.42387
-0.423539
-0.424072
-0.425858
-0.428741
-0.432137
-0.435249
-0.437268
-0.437603
-0.435556
-0.416176
-0.417634
-0.419617
-0.422733
-0.426793
-0.431083
-0.434808
-0.437393
-0.438592
-0.436898
-0.407677
-0.411004
-0.41415
-0.418127
-0.422837
-0.427513
-0.431429
-0.434288
-0.435954
-0.433903
-0.399455
-0.404468
-0.408464
-0.412921
-0.417892
-0.422614
-0.426477
-0.429425
-0.431218
-0.428515
-0.392887
-0.399163
-0.403711
-0.408401
-0.413429
-0.418057
-0.421793
-0.424732
-0.426447
-0.42313
-0.389229
-0.39618
-0.401
-0.405781
-0.4108
-0.415344
-0.418988
-0.421895
-0.423507
-0.419833
-0.323665
-0.0143364
0.0321584
0.0378582
0.0190278
0.0091404
0.00520987
0.00289761
0.00139421
0.000403194
-0.328058
-0.0164619
0.0314601
0.0375739
0.018936
0.00910408
0.00519737
0.00289347
0.0013922
0.000402397
-0.336427
-0.0205578
0.0301343
0.0370224
0.0187546
0.00903176
0.00517242
0.00288521
0.0013882
0.000400801
-0.347943
-0.0264719
0.0282776
0.0362334
0.0184879
0.00892403
0.00513509
0.00287286
0.00138219
0.000398417
-0.361415
-0.0341033
0.026001
0.0352476
0.0181419
0.00878152
0.00508542
0.00285644
0.0013742
0.000395258
-0.375397
-0.043213
0.023454
0.0341195
0.0177253
0.00860474
0.00502314
0.00283585
0.00136417
0.000391321
-0.38903
-0.0536978
0.0206606
0.032885
0.0172496
0.0083957
0.00494846
0.0028111
0.00135207
0.000386603
-0.402841
-0.0669147
0.0170874
0.0314859
0.0167296
0.0081632
0.00486472
0.00278359
0.00133845
0.000381255
-0.414745
-0.0848196
0.0121857
0.029905
0.0161885
0.0079148
0.00477514
0.00275537
0.00132426
0.000375582
-0.41152
-0.100234
0.00847687
0.0286785
0.0155958
0.00759178
0.00465299
0.00271597
0.00130541
0.000368465
-0.353445
-0.11805
0.00601078
0.0270203
0.0134307
0.00606625
0.00401522
0.00249117
0.00120217
0.000331685
-0.243517
-0.112657
-0.00258992
0.0189074
0.0075967
0.00245169
0.00222979
0.00172552
0.000870425
0.00022703
-0.167258
-0.100239
-0.0163238
0.00966891
0.00401719
0.000371749
0.000855574
0.0010082
0.000549336
0.000135143
-0.116335
-0.0847808
-0.0261869
0.00104881
0.000767056
-0.00142841
-0.000526306
0.000204167
0.000186922
3.58192e-05
-0.0852234
-0.0712259
-0.0313156
-0.00588054
-0.00208705
-0.00278074
-0.00164195
-0.000529785
-0.000160933
-5.64494e-05
-0.065559
-0.0598595
-0.0332186
-0.0112857
-0.00478695
-0.00392733
-0.00254153
-0.00117725
-0.000485366
-0.000141994
-0.0528886
-0.05135
-0.0336085
-0.0152459
-0.00713859
-0.00487994
-0.00322398
-0.0017034
-0.000764598
-0.000215826
-0.0450555
-0.0454085
-0.0332211
-0.0178515
-0.00897402
-0.0056321
-0.00371438
-0.00209805
-0.000985067
-0.000274896
-0.0404748
-0.0416363
-0.0326728
-0.0194063
-0.0102314
-0.00616142
-0.0040327
-0.00235947
-0.00113693
-0.000316137
-0.0383571
-0.0398156
-0.0323294
-0.0201324
-0.0108689
-0.00643427
-0.00418874
-0.00248921
-0.00121421
-0.000337255
-0.15508
-0.17039
-0.18451
-0.198124
-0.210902
-0.224038
-0.236711
-0.252013
-0.269096
-0.296466
-0.0976938
-0.106491
-0.114275
-0.1213
-0.12739
-0.132818
-0.13733
-0.141858
-0.147458
-0.158782
-0.06232
-0.0677664
-0.0727647
-0.0775051
-0.0821447
-0.0868505
-0.0918394
-0.0973236
-0.103768
-0.111681
-0.0465176
-0.0506794
-0.0546566
-0.0584917
-0.0622423
-0.0658793
-0.0694698
-0.0729675
-0.0767004
-0.0810425
-0.0375231
-0.0404789
-0.0432899
-0.0459729
-0.0485745
-0.0510994
-0.0536158
-0.0561115
-0.0587684
-0.0617273
-0.0320208
-0.0342166
-0.0363302
-0.0383673
-0.0403439
-0.0422512
-0.0441122
-0.0459155
-0.0477658
-0.0497567
-0.0288502
-0.0304979
-0.0320815
-0.0336013
-0.0350649
-0.036473
-0.0378452
-0.0391819
-0.0405393
-0.0419523
-0.0269334
-0.0282205
-0.0294686
-0.0306779
-0.031852
-0.0329895
-0.0340967
-0.0351662
-0.0362215
-0.037267
-0.0258713
-0.0269474
-0.0279958
-0.0290142
-0.0300014
-0.0309539
-0.0318737
-0.0327554
-0.0336128
-0.0344414
-0.0254064
-0.0263728
-0.0273155
-0.0282321
-0.0291216
-0.0299817
-0.0308137
-0.031613
-0.0323877
-0.0331261
0.0848348
0.047073
0.0172315
-0.00575352
-0.0283291
-0.0525894
-0.07691
-0.0995908
-0.120024
-0.138456
0.0561282
0.0381865
0.0150289
-0.00519343
-0.0211986
-0.0355474
-0.0497759
-0.0636554
-0.0764295
-0.0877721
0.032275
0.0224082
0.00801955
-0.00607174
-0.0173457
-0.0263047
-0.0343208
-0.0420677
-0.0494666
-0.0562527
0.0152055
0.0082633
-0.000779901
-0.00950534
-0.0167308
-0.02258
-0.0277148
-0.032629
-0.0374526
-0.0421069
0.00332148
-0.00140261
-0.00709909
-0.0124732
-0.0170349
-0.0209099
-0.0244243
-0.0278146
-0.0311532
-0.0344057
-0.0041982
-0.00716293
-0.0107225
-0.0141828
-0.0172518
-0.0199728
-0.0225029
-0.0249579
-0.0273739
-0.0297358
-0.00903074
-0.0110086
-0.01335
-0.0156909
-0.017858
-0.0198508
-0.0217371
-0.0235725
-0.0253758
-0.0271396
-0.0122761
-0.013715
-0.0153398
-0.0169748
-0.0185374
-0.0200231
-0.0214581
-0.0228646
-0.0242494
-0.025608
-0.0142754
-0.0153961
-0.0166037
-0.0178247
-0.0190256
-0.0202026
-0.0213629
-0.0225117
-0.0236489
-0.0247704
-0.0152073
-0.0161864
-0.0172124
-0.0182539
-0.0192958
-0.0203339
-0.0213676
-0.0223954
-0.0234139
-0.0244189
0.22039
0.220631
0.221104
0.221199
0.220327
0.217348
0.210865
0.197772
0.17381
0.131638
0.156504
0.155332
0.152613
0.148317
0.141978
0.13326
0.121412
0.106604
0.0888266
0.0702223
0.103247
0.10182
0.0987285
0.0941396
0.0880735
0.0807142
0.0720182
0.0623437
0.0516598
0.0405241
0.0645972
0.0635747
0.061445
0.0583301
0.0542853
0.0494724
0.043832
0.037469
0.0301292
0.0219393
0.0384135
0.0377841
0.0364792
0.0345064
0.0318337
0.028508
0.0244724
0.0197941
0.0143689
0.00833934
0.0207647
0.0203351
0.019433
0.018031
0.0160857
0.0136181
0.010621
0.00717699
0.00329389
-0.000871783
0.00882945
0.00850378
0.00782365
0.00677383
0.00533629
0.003534
0.00137947
-0.00106695
-0.00379054
-0.00670195
0.00102188
0.00077318
0.000261954
-0.000519818
-0.00157959
-0.00290295
-0.00448118
-0.00628228
-0.0082987
-0.0104859
-0.00364698
-0.00384323
-0.00424353
-0.00485718
-0.00569135
-0.00673933
-0.00799381
-0.00943413
-0.0110499
-0.0128141
-0.0058241
-0.00599646
-0.00634754
-0.0068873
-0.00762218
-0.00854725
-0.00965371
-0.0109242
-0.0123471
-0.0139048
0.322918
0.326137
0.332816
0.342936
0.356759
0.374382
0.39649
0.423166
0.455545
0.493271
0.321035
0.324234
0.330834
0.340767
0.354317
0.371564
0.393201
0.419242
0.450837
0.487384
0.317348
0.320504
0.32695
0.336519
0.349537
0.366048
0.386756
0.411538
0.441572
0.475745
0.312005
0.315097
0.321319
0.330364
0.342613
0.358049
0.37739
0.400295
0.427975
0.45852
0.305209
0.308215
0.314154
0.322535
0.333807
0.34786
0.365422
0.385837
0.410342
0.435929
0.297198
0.3001
0.305709
0.313318
0.323437
0.335829
0.351225
0.368557
0.389046
0.408285
0.288219
0.291008
0.296265
0.303035
0.311877
0.322378
0.335235
0.348892
0.364516
0.375893
0.27851
0.281174
0.286092
0.292017
0.299544
0.308027
0.318056
0.327427
0.337223
0.339247
0.268293
0.270775
0.275354
0.280468
0.286736
0.293207
0.300384
0.305175
0.307794
0.299181
0.257805
0.259946
0.263992
0.268226
0.273205
0.277682
0.282182
0.28291
0.27893
0.25578
0.257804
0.259946
0.263991
0.268226
0.273205
0.277682
0.282182
0.28291
0.278929
0.255779
0.268293
0.270775
0.275354
0.280467
0.286736
0.293206
0.300384
0.305174
0.307793
0.299181
0.27851
0.281174
0.286092
0.292016
0.299544
0.308027
0.318055
0.327426
0.337223
0.339247
0.288219
0.291008
0.296265
0.303035
0.311876
0.322377
0.335235
0.348891
0.364516
0.375892
0.297198
0.3001
0.305709
0.313318
0.323437
0.335829
0.351225
0.368557
0.389046
0.408284
0.305209
0.308215
0.314154
0.322535
0.333807
0.34786
0.365422
0.385837
0.410342
0.435929
0.312005
0.315097
0.321319
0.330363
0.342613
0.358049
0.37739
0.400295
0.427975
0.458519
0.317348
0.320504
0.32695
0.336519
0.349537
0.366048
0.386756
0.411538
0.441572
0.475745
0.321035
0.324234
0.330834
0.340767
0.354317
0.371564
0.393201
0.419242
0.450836
0.487384
0.322918
0.326137
0.332816
0.342936
0.356759
0.374382
0.39649
0.423166
0.455545
0.493271
-0.0058239
-0.00599627
-0.00634735
-0.00688711
-0.007622
-0.00854706
-0.00965352
-0.010924
-0.0123469
-0.0139046
-0.0036468
-0.00384305
-0.00424335
-0.004857
-0.00569117
-0.00673914
-0.00799361
-0.00943391
-0.0110496
-0.0128138
0.00102204
0.00077333
0.000262096
-0.000519682
-0.00157946
-0.00290281
-0.00448102
-0.00628209
-0.00829847
-0.0104857
0.00882957
0.00850389
0.00782377
0.00677395
0.00533642
0.00353413
0.00137959
-0.00106686
-0.00379045
-0.00670183
0.0207647
0.0203352
0.0194331
0.018031
0.0160858
0.0136182
0.0106211
0.00717713
0.00329406
-0.000871585
0.0384135
0.0377841
0.0364792
0.0345064
0.0318337
0.028508
0.0244724
0.0197941
0.0143689
0.00833945
0.0645971
0.0635746
0.0614449
0.05833
0.0542852
0.0494723
0.0438319
0.0374689
0.0301291
0.0219392
0.103247
0.101819
0.0987284
0.0941395
0.0880734
0.0807141
0.072018
0.0623436
0.0516597
0.040524
0.156504
0.155332
0.152613
0.148317
0.141977
0.133259
0.121412
0.106603
0.0888264
0.070222
0.22039
0.220631
0.221104
0.221198
0.220327
0.217348
0.210865
0.197772
0.17381
0.131637
-0.0152071
-0.0161862
-0.0172122
-0.0182537
-0.0192955
-0.0203336
-0.0213673
-0.0223951
-0.0234136
-0.0244186
-0.0142751
-0.0153958
-0.0166034
-0.0178244
-0.0190253
-0.0202022
-0.0213625
-0.0225114
-0.0236486
-0.0247701
-0.0122758
-0.0137147
-0.0153396
-0.0169745
-0.0185371
-0.0200228
-0.0214578
-0.0228644
-0.0242491
-0.0256077
-0.00903052
-0.0110083
-0.0133496
-0.0156905
-0.0178576
-0.0198504
-0.0217367
-0.0235722
-0.0253755
-0.0271392
-0.00419801
-0.00716273
-0.0107223
-0.0141826
-0.0172516
-0.0199726
-0.0225027
-0.0249576
-0.0273736
-0.0297356
0.0033216
-0.00140247
-0.00709895
-0.0124731
-0.0170347
-0.0209098
-0.0244242
-0.0278144
-0.031153
-0.0344055
0.0152055
0.00826331
-0.000779908
-0.00950539
-0.0167308
-0.02258
-0.0277147
-0.0326289
-0.0374524
-0.0421067
0.0322747
0.0224078
0.00801911
-0.00607217
-0.0173461
-0.026305
-0.034321
-0.0420678
-0.0494666
-0.0562526
0.0561278
0.0381858
0.0150282
-0.00519416
-0.0211993
-0.0355481
-0.0497764
-0.0636558
-0.0764297
-0.087772
0.0848342
0.0470723
0.0172307
-0.00575463
-0.0283304
-0.0525907
-0.0769113
-0.0995921
-0.120026
-0.138457
-0.025406
-0.0263724
-0.0273151
-0.0282317
-0.0291212
-0.0299813
-0.0308134
-0.0316126
-0.0323874
-0.0331258
-0.0258709
-0.026947
-0.0279954
-0.0290138
-0.030001
-0.0309535
-0.0318734
-0.0327551
-0.0336125
-0.0344411
-0.026933
-0.0282201
-0.0294682
-0.0306775
-0.0318516
-0.0329891
-0.0340963
-0.0351659
-0.0362211
-0.0372666
-0.0288498
-0.0304975
-0.0320811
-0.0336009
-0.0350646
-0.0364726
-0.0378448
-0.0391815
-0.0405389
-0.0419519
-0.0320205
-0.0342162
-0.0363298
-0.038367
-0.0403436
-0.0422509
-0.044112
-0.0459153
-0.0477655
-0.0497564
-0.0375228
-0.0404786
-0.0432896
-0.0459725
-0.0485742
-0.0510991
-0.0536155
-0.0561112
-0.0587681
-0.0617269
-0.0465174
-0.0506791
-0.0546563
-0.0584913
-0.0622417
-0.0658787
-0.069469
-0.0729666
-0.0766994
-0.0810414
-0.0623199
-0.0677663
-0.0727647
-0.0775051
-0.0821449
-0.0868508
-0.0918397
-0.0973238
-0.103768
-0.11168
-0.0976933
-0.10649
-0.114274
-0.121299
-0.127388
-0.132816
-0.137329
-0.141858
-0.147458
-0.158782
-0.155081
-0.170391
-0.18451
-0.198123
-0.2109
-0.224033
-0.236704
-0.252003
-0.269083
-0.296451
-0.0383569
-0.0398152
-0.0323292
-0.0201325
-0.0108689
-0.00643417
-0.00418867
-0.00248923
-0.0012143
-0.000337287
-0.0404744
-0.0416359
-0.0326727
-0.0194064
-0.0102314
-0.00616131
-0.00403264
-0.00235951
-0.00113702
-0.000316162
-0.0450551
-0.0454081
-0.0332211
-0.0178516
-0.00897396
-0.00563201
-0.00371437
-0.00209811
-0.000985151
-0.000274921
-0.0528882
-0.0513497
-0.0336085
-0.015246
-0.00713846
-0.00487987
-0.003224
-0.00170345
-0.000764682
-0.000215853
-0.0655585
-0.0598591
-0.0332186
-0.0112857
-0.00478676
-0.00392726
-0.00254155
-0.0011773
-0.000485457
-0.000142021
-0.0852225
-0.0712252
-0.0313158
-0.00588065
-0.00208686
-0.00278072
-0.00164198
-0.00052982
-0.000161026
-5.6482e-05
-0.116334
-0.0847794
-0.0261873
0.0010485
0.000767199
-0.00142843
-0.00052635
0.000204128
0.00018682
3.57889e-05
-0.167255
-0.100237
-0.0163244
0.00966839
0.00401726
0.000371708
0.000855576
0.00100814
0.000549192
0.000135118
-0.243512
-0.112654
-0.00259114
0.0189067
0.00759679
0.00245159
0.00222981
0.00172548
0.000870268
0.000226994
-0.35343
-0.118045
0.00600818
0.0270189
0.0134306
0.00606615
0.00401524
0.00249115
0.00120208
0.000331671
-0.411498
-0.100228
0.00847401
0.0286771
0.0155957
0.0075917
0.00465301
0.00271599
0.00130537
0.000368466
-0.414721
-0.0848141
0.0121827
0.0299036
0.0161884
0.00791474
0.00477515
0.00275539
0.00132423
0.000375582
-0.402817
-0.0669102
0.0170842
0.0314847
0.0167295
0.00816314
0.00486473
0.00278361
0.00133842
0.000381253
-0.389007
-0.0536939
0.0206575
0.0328838
0.0172494
0.00839566
0.00494847
0.00281111
0.00135204
0.000386599
-0.375375
-0.0432093
0.0234511
0.0341185
0.0177252
0.00860471
0.00502316
0.00283586
0.00136414
0.000391316
-0.361395
-0.0340999
0.0259984
0.0352467
0.0181418
0.0087815
0.00508543
0.00285645
0.00137418
0.000395251
-0.347926
-0.0264688
0.0282755
0.0362327
0.0184878
0.00892402
0.00513511
0.00287287
0.00138217
0.000398409
-0.336414
-0.0205552
0.0301327
0.0370219
0.0187546
0.00903176
0.00517243
0.00288521
0.00138818
0.000400792
-0.32805
-0.0164601
0.0314592
0.0375736
0.018936
0.00910408
0.00519738
0.00289348
0.00139219
0.000402389
-0.323662
-0.0143358
0.032158
0.0378581
0.0190278
0.0091404
0.00520988
0.00289762
0.0013942
0.00040319
)
;

boundaryField
{
    inlet
    {
        type            zeroGradient;
    }
    outlet
    {
        type            fixedValue;
        value           uniform 0;
    }
    cylinder
    {
        type            zeroGradient;
    }
    top
    {
        type            symmetryPlane;
    }
    bottom
    {
        type            symmetryPlane;
    }
    defaultFaces
    {
        type            empty;
    }
}


// ************************************************************************* //
