/*--------------------------------*- C++ -*----------------------------------*\
  =========                 |
  \\      /  F ield         | OpenFOAM: The Open Source CFD Toolbox
   \\    /   O peration     | Website:  https://openfoam.org
    \\  /    A nd           | Version:  6.0
     \\/     M anipulation  |
\*---------------------------------------------------------------------------*/
FoamFile
{
    version     2.0;
    format      ascii;
    class       surfaceScalarField;
    location    "4";
    object      phi;
}
// * * * * * * * * * * * * * * * * * * * * * * * * * * * * * * * * * * * * * //

dimensions      [0 3 -1 0 0 0 0];

internalField   nonuniform List<scalar> 
3880
(
-0.000102245
0.000102275
-2.93507e-08
-0.000298672
0.000196496
-6.92271e-08
-0.000534849
0.000236273
-9.70124e-08
-0.000780085
0.000245353
-1.16738e-07
-0.00101628
0.000236323
-1.31246e-07
-0.00123273
0.000216594
-1.41778e-07
-0.00142325
0.000190674
-1.48268e-07
-0.00158523
0.000162127
-1.50053e-07
-0.00171939
0.00013431
-1.46079e-07
0.000109984
-1.36068e-07
-0.00182924
-8.85948e-05
0.000190869
-0.000262802
0.000370704
-0.000474493
0.000447964
-0.000694767
0.000465627
-0.000905459
0.000447015
-0.00109496
0.000406096
-0.00125567
0.000351379
-0.00138309
0.000289553
-0.00147636
0.000227579
0.000171944
-0.00153832
-6.415e-05
0.000255019
-0.000197318
0.000503872
-0.000362694
0.00061334
-0.000535075
0.000638008
-0.000696853
0.000608793
-0.000835506
0.000544749
-0.000941647
0.00045752
-0.00100807
0.000355975
-0.00103084
0.000250354
0.000152528
-0.00101143
-3.42024e-05
0.000289222
-0.000114356
0.000584025
-0.00021743
0.000716414
-0.000323623
0.000744201
-0.000417202
0.000702372
-0.000485837
0.000613384
-0.000519369
0.000491053
-0.000508639
0.000345244
-0.000446203
0.000187919
3.7457e-05
-0.000331132
-5.44761e-06
0.000294669
-3.03964e-05
0.000608974
-6.46962e-05
0.000750714
-9.47505e-05
0.000774256
-0.000108016
0.000715637
-9.37486e-05
0.000599116
-4.24771e-05
0.000439781
5.52218e-05
0.000247545
0.000209325
3.3816e-05
-0.000177286
0.000424068
1.5787e-05
0.000278882
3.75326e-05
0.000587228
6.65736e-05
0.000721673
0.000110948
0.000729881
0.000179649
0.000646936
0.000281368
0.000497398
0.000424525
0.000296624
0.000618032
5.40381e-05
0.00087275
-0.000220902
-0.000501505
0.00119697
2.56401e-05
0.000253242
7.76897e-05
0.000535179
0.00015475
0.000644613
0.000261642
0.000622988
0.000405201
0.000503378
0.000593408
0.00030919
0.000834996
5.50365e-05
0.00113901
-0.000249974
0.0015146
-0.000596496
-0.000961568
0.00197467
2.42477e-05
0.000228995
8.90363e-05
0.00047039
0.000196872
0.000536777
0.000353393
0.000466468
0.000566638
0.000290133
0.000846626
2.92023e-05
0.00120375
-0.000302084
0.00164648
-0.000692713
0.00217645
-0.00112646
-0.00159232
0.0028072
1.59593e-05
0.000213035
8.307e-05
0.00040328
0.000213755
0.000406091
0.00041946
0.000260763
0.000713113
-3.52056e-06
0.00110751
-0.00036519
0.00161105
-0.000805633
0.00222467
-0.00130633
0.00293448
-0.00183627
-0.00239818
0.00374034
7.83359e-06
0.000205202
7.99004e-05
0.000331213
0.000242806
0.000243185
0.000517544
-1.39749e-05
0.000921976
-0.000407953
0.0014656
-0.00090881
0.00214298
-0.00148302
0.00293229
-0.00209564
0.00379116
-0.00269514
-0.00329574
0.00468872
6.60518e-06
0.000198597
9.91432e-05
0.000238675
0.000319573
2.27556e-05
0.000697574
-0.000391975
0.00124839
-0.000958773
0.00196439
-0.00162481
0.00281237
-0.00233099
0.00374033
-0.0030236
0.00467783
-0.00363263
-0.00421525
0.00559733
1.58149e-05
0.000182782
0.000151308
0.000103181
0.000460788
-0.000286724
0.000974328
-0.000905516
0.0016882
-0.00167264
0.00256031
-0.00249692
0.00352183
-0.00329251
0.00449438
-0.00399616
0.00541889
-0.00455714
-0.00503422
0.00623786
3.53717e-05
0.00014741
0.000236368
-9.78149e-05
0.000661837
-0.000712193
0.00132518
-0.00156886
0.0021824
-0.00252986
0.00314682
-0.00346134
0.00412154
-0.00426723
0.00502477
-0.00489939
0.00581336
-0.00534574
-0.00565982
0.00643897
6.35165e-05
8.38934e-05
0.000348522
-0.000382821
0.000904272
-0.00126794
0.00170266
-0.00236725
0.00264379
-0.00347099
0.00360543
-0.00442298
0.00448858
-0.00515038
0.00523655
-0.00564735
0.00583758
-0.00594677
-0.00610914
0.0062869
9.87485e-05
-1.4855e-05
0.000480216
-0.000764288
0.00116119
-0.00194892
0.00204729
-0.00325335
0.0029876
-0.0044113
0.00385419
-0.00528958
0.00457693
-0.00587312
0.00513977
-0.0062102
0.00556317
-0.00637018
-0.00641769
0.00587173
0.000140097
-0.000154952
0.000621738
-0.00124593
0.00139874
-0.00272592
0.00230205
-0.00415666
0.00316008
-0.00526933
0.00387423
-0.00600372
0.00441957
-0.00641846
0.00481717
-0.00660779
0.00510586
-0.00665887
-0.00663178
0.00531995
0.000186261
-0.000341213
0.000759057
-0.00181872
0.0015814
-0.00354826
0.00243
-0.00500526
0.00315293
-0.00599226
0.00370017
-0.00655096
0.00408759
-0.00680588
0.00435688
-0.00687709
0.00454964
-0.00685163
-0.00677992
0.00469777
0.000234745
-0.000575958
0.000874483
-0.00245846
0.00168282
-0.0043566
0.00242408
-0.00574651
0.00299333
-0.00656151
0.0033876
-0.00694524
0.00364835
-0.00706663
0.00382296
-0.00705169
0.00394787
-0.00697654
-0.00687959
0.00404755
0.000281413
-0.000857371
0.000951354
-0.0031284
0.00169379
-0.00509903
0.0023011
-0.00635383
0.0027219
-0.00698231
0.00298748
-0.00721082
0.00315024
-0.00722939
0.00325404
-0.00715548
0.00332683
-0.00704933
-0.00693882
0.00338606
0.000320707
-0.00117808
0.000979342
-0.00378704
0.00162077
-0.00574046
0.00208829
-0.00682135
0.00237677
-0.00727079
0.00253774
-0.00737178
0.00262422
-0.00731587
0.00267221
-0.00720347
0.00270153
-0.00707866
-0.00696089
0.0027236
0.000346868
-0.00152495
0.000956631
-0.0043968
0.00147895
-0.00626278
0.00181299
-0.00715538
0.0019879
-0.00744571
0.00206391
-0.00744779
0.00208859
-0.00734056
0.00208909
-0.00720397
0.00207849
-0.00706806
-0.00694658
0.00206418
0.000355532
-0.00188048
0.000888174
-0.00492944
0.00128573
-0.00666034
0.00149801
-0.00736766
0.00157648
-0.00752418
0.00158193
-0.00745324
0.00155377
-0.00731239
0.00151107
-0.00716127
0.00146202
-0.00701901
-0.00689565
0.00141109
0.000344919
-0.0022254
0.000782537
-0.00536706
0.00105734
-0.00693515
0.00116085
-0.00747116
0.00115681
-0.00752014
0.00110146
-0.00739789
0.00102554
-0.00723647
0.000941634
-0.00707736
0.000854565
-0.00693194
-0.0068081
0.000767016
0.000315852
-0.00254125
0.000649135
-0.00570034
0.000807348
-0.00709336
0.000814175
-0.00747799
0.000738083
-0.00744405
0.000628147
-0.00728796
0.000507171
-0.0071155
0.000382963
-0.00695315
0.000258141
-0.00680711
-0.00668423
0.000134267
0.000271051
-0.0028123
0.000496755
-0.00592605
0.00054635
-0.00714295
0.000466882
-0.00739852
0.000326204
-0.00730337
0.000165281
-0.00712704
4.37617e-07
-0.00695065
-0.00016367
-0.00678905
-0.000325726
-0.00664506
-0.00652513
-0.000484828
0.000214154
-0.00302645
0.000332926
-0.00604482
0.000282281
-0.00709231
0.000125043
-0.00724128
-7.50725e-05
-0.00710326
-0.000285111
-0.006917
-0.000493704
-0.00674206
-0.000697971
-0.00658478
-0.000897061
-0.00644597
-0.00633072
-0.00109147
0.000148988
-0.00317544
0.000163874
-0.00605971
2.09273e-05
-0.00694936
-0.000207435
-0.00701292
-0.000463683
-0.00684701
-0.000722169
-0.00665851
-0.000975215
-0.00648901
-0.00122096
-0.00633904
-0.00145845
-0.00620848
-0.00609681
-0.00169235
7.92731e-05
-0.00325472
-5.00335e-06
-0.00597543
-0.000233016
-0.00672135
-0.000527697
-0.00671824
-0.000838759
-0.00653595
-0.00114671
-0.00635056
-0.00144619
-0.00618953
-0.00173592
-0.00604931
-0.00201585
-0.00592855
-0.00581284
-0.00229982
8.5002e-06
-0.00326322
-0.000168626
-0.0057983
-0.000474509
-0.00641547
-0.00083147
-0.00636128
-0.00119741
-0.00617
-0.0015584
-0.00598957
-0.00191018
-0.00583775
-0.00224996
-0.00570953
-0.0025768
-0.00560172
-0.0054732
-0.00291644
-6.04096e-05
-0.00320281
-0.00032258
-0.00553613
-0.000698077
-0.00603997
-0.00111127
-0.00594808
-0.00152906
-0.00575221
-0.00194423
-0.0055744
-0.00235614
-0.00542584
-0.00276521
-0.00530046
-0.00317358
-0.00519334
-0.00517844
-0.00346834
-0.00012548
-0.00307733
-0.000464265
-0.00519735
-0.000900578
-0.00560366
-0.00136119
-0.00548747
-0.00182003
-0.00529337
-0.00227559
-0.00511885
-0.0027327
-0.00496873
-0.00319312
-0.00484005
-0.00366143
-0.00472503
-0.00457326
-0.00426661
-0.000185635
-0.00289169
-0.000593005
-0.00478998
-0.0010831
-0.00511356
-0.00158513
-0.00498544
-0.00207616
-0.00480234
-0.002552
-0.004643
-0.00301277
-0.00450796
-0.0034644
-0.00438841
-0.00391909
-0.00427034
-0.00414163
-0.00435072
-0.000239932
-0.00265176
-0.000707809
-0.0043221
-0.00124555
-0.00457582
-0.00178671
-0.00444428
-0.0023144
-0.00427465
-0.00282778
-0.00412963
-0.00332852
-0.00400722
-0.003818
-0.00389893
-0.00429128
-0.00379706
-0.00370547
-0.00472744
-0.000287908
-0.00236385
-0.000808006
-0.003802
-0.00138558
-0.00399824
-0.00195721
-0.00387266
-0.00250984
-0.00372202
-0.0030446
-0.00359487
-0.0035641
-0.00348772
-0.00406953
-0.0033935
-0.00455912
-0.00330747
-0.0032328
-0.00503179
-0.000329602
-0.00203425
-0.000894893
-0.00323671
-0.001508
-0.00338513
-0.0021091
-0.00327156
-0.00268863
-0.00314248
-0.00324874
-0.00303477
-0.00379189
-0.00294456
-0.00431904
-0.00286635
-0.0048299
-0.00279661
-0.00273855
-0.00532415
-0.000364427
-0.00166982
-0.000966835
-0.00263431
-0.00160865
-0.00274332
-0.00223327
-0.00264694
-0.00283412
-0.00254163
-0.0034143
-0.00245459
-0.00397677
-0.00238209
-0.00452346
-0.00231966
-0.00505538
-0.0022647
-0.0022203
-0.00557363
-0.000392619
-0.0012772
-0.00102498
-0.00200194
-0.00169023
-0.00207807
-0.0023345
-0.00200267
-0.00295355
-0.00192257
-0.00355128
-0.00185686
-0.00413092
-0.00180246
-0.00469466
-0.00175592
-0.00524398
-0.00171537
-0.00168352
-0.00578076
-0.000413867
-0.000863335
-0.00106868
-0.00134713
-0.00175153
-0.00139522
-0.00241067
-0.00134354
-0.00304358
-0.00128967
-0.00365474
-0.0012457
-0.00424777
-0.00120942
-0.00482516
-0.00117854
-0.00538866
-0.00115187
-0.00113145
-0.00594073
-0.000428095
-0.00043524
-0.0010979
-0.000677324
-0.00179255
-0.000700576
-0.00246177
-0.000674313
-0.00310419
-0.000647245
-0.00372466
-0.000625226
-0.00432698
-0.000607101
-0.00491381
-0.000591711
-0.00548717
-0.000578508
-0.000568593
-0.00605003
-0.000435234
-6.21931e-09
-0.00111255
-1.06665e-08
-0.00181311
-1.09204e-08
-0.00248742
-9.78806e-09
-0.00313465
-8.55218e-09
-0.00375987
-7.46469e-09
-0.00436696
-6.51649e-09
-0.00495867
-5.68573e-09
-0.00553717
-4.95503e-09
-4.32142e-09
-0.00610576
-0.000435234
0.000435227
-0.00111255
0.000677303
-0.00181311
0.000700554
-0.00248742
0.000674294
-0.00313465
0.000647228
-0.00375987
0.000625211
-0.00436697
0.000607088
-0.00495867
0.0005917
-0.00553717
0.000578498
0.000568584
-0.00610576
-0.000428095
0.000863323
-0.0010979
0.00134711
-0.00179255
0.0013952
-0.00246177
0.00134352
-0.00310419
0.00128965
-0.00372466
0.00124568
-0.00432698
0.00120941
-0.00491381
0.00117853
-0.00548717
0.00115186
0.00113144
-0.00605003
-0.000413867
0.00127719
-0.00106868
0.00200192
-0.00175153
0.00207805
-0.00241067
0.00200265
-0.00304358
0.00192256
-0.00365474
0.00185685
-0.00424777
0.00180244
-0.00482516
0.00175591
-0.00538866
0.00171536
0.00168351
-0.00594073
-0.00039262
0.00166981
-0.00102498
0.00263428
-0.00169023
0.0027433
-0.0023345
0.00264692
-0.00295356
0.00254161
-0.00355128
0.00245457
-0.00413092
0.00238208
-0.00469466
0.00231965
-0.00524398
0.00226469
0.00222029
-0.00578076
-0.000364428
0.00203424
-0.000966836
0.00323669
-0.00160865
0.00338511
-0.00223327
0.00327154
-0.00283412
0.00314247
-0.0034143
0.00303476
-0.00397677
0.00294455
-0.00452346
0.00286634
-0.00505538
0.0027966
0.00273854
-0.00557363
-0.000329603
0.00236384
-0.000894894
0.00380198
-0.001508
0.00399822
-0.0021091
0.00387264
-0.00268864
0.003722
-0.00324874
0.00359486
-0.00379189
0.00348771
-0.00431904
0.00339349
-0.0048299
0.00330746
0.00323279
-0.00532416
-0.000287909
0.00265175
-0.000808008
0.00432208
-0.00138558
0.0045758
-0.00195721
0.00444426
-0.00250985
0.00427464
-0.0030446
0.00412961
-0.0035641
0.00400721
-0.00406953
0.00389892
-0.00455912
0.00379705
0.00370546
-0.00503179
-0.000239934
0.00289168
-0.000707811
0.00478996
-0.00124556
0.00511354
-0.00178672
0.00498542
-0.00231441
0.00480233
-0.00282778
0.00464299
-0.00332852
0.00450795
-0.003818
0.0043884
-0.00429128
0.00427033
0.00414162
-0.00472744
-0.000185637
0.00307732
-0.000593009
0.00519733
-0.00108311
0.00560364
-0.00158513
0.00548745
-0.00207616
0.00529336
-0.00255201
0.00511884
-0.00301277
0.00496871
-0.00346441
0.00484003
-0.0039191
0.00472502
0.00457325
-0.00435072
-0.000125482
0.0032028
-0.000464269
0.00553612
-0.000900583
0.00603995
-0.0013612
0.00594806
-0.00182004
0.0057522
-0.00227559
0.00557439
-0.00273271
0.00542583
-0.00319312
0.00530045
-0.00366144
0.00519333
0.00517843
-0.00426662
-6.0412e-05
0.00326321
-0.000322585
0.00579829
-0.000698083
0.00641545
-0.00111128
0.00636126
-0.00152907
0.00616999
-0.00194424
0.00598956
-0.00235615
0.00583774
-0.00276522
0.00570952
-0.00317359
0.00560171
0.00547319
-0.00346835
8.49744e-06
0.00325472
-0.000168632
0.00597542
-0.000474516
0.00672134
-0.000831479
0.00671822
-0.00119742
0.00653593
-0.00155841
0.00635055
-0.00191019
0.00618952
-0.00224997
0.0060493
-0.0025768
0.00592854
0.00581283
-0.00291645
7.92699e-05
0.00317545
-5.01007e-06
0.0060597
-0.000233025
0.00694935
-0.000527708
0.00701291
-0.00083877
0.00684699
-0.00114672
0.0066585
-0.0014462
0.006489
-0.00173593
0.00633903
-0.00201586
0.00620847
0.0060968
-0.00229983
0.000148985
0.00302646
0.000163867
0.00604482
2.09165e-05
0.0070923
-0.000207448
0.00724127
-0.000463696
0.00710324
-0.000722183
0.00691698
-0.000975229
0.00674205
-0.00122097
0.00658477
-0.00145846
0.00644596
0.0063307
-0.00169237
0.00021415
0.00281231
0.000332917
0.00592605
0.000282269
0.00714295
0.000125028
0.00739851
-7.50886e-05
0.00730336
-0.000285128
0.00712702
-0.000493721
0.00695064
-0.000697988
0.00678904
-0.000897078
0.00664505
0.00652511
-0.00109149
0.000271047
0.00254126
0.000496745
0.00570036
0.000546335
0.00709336
0.000466865
0.00747798
0.000326185
0.00744404
0.000165261
0.00728795
4.1735e-07
0.00711548
-0.00016369
0.00695314
-0.000325746
0.0068071
0.00668422
-0.000484848
0.000315848
0.00222542
0.000649124
0.00536708
0.000807332
0.00693515
0.000814155
0.00747116
0.000738061
0.00752013
0.000628123
0.00739788
0.000507147
0.00723646
0.000382939
0.00707735
0.000258117
0.00693193
0.00680809
0.000134243
0.000344916
0.0018805
0.000782527
0.00492947
0.00105733
0.00666035
0.00116083
0.00736766
0.00115678
0.00752418
0.00110144
0.00745323
0.00102551
0.00731238
0.000941606
0.00716126
0.000854536
0.00701899
0.00689564
0.000766987
0.00035553
0.00152497
0.000888163
0.00439684
0.00128571
0.00626281
0.00149798
0.00715539
0.00157645
0.00744571
0.0015819
0.00744778
0.00155373
0.00734055
0.00151104
0.00720396
0.00146199
0.00706804
0.00694657
0.00141105
0.000346867
0.0011781
0.000956622
0.00378708
0.00147894
0.00574049
0.00181296
0.00682136
0.00198787
0.0072708
0.00206387
0.00737178
0.00208856
0.00731587
0.00208905
0.00720346
0.00207845
0.00707865
0.00696088
0.00206414
0.000320707
0.000857396
0.000979336
0.00312845
0.00162076
0.00509907
0.00208826
0.00635386
0.00237674
0.00698232
0.0025377
0.00721082
0.00262418
0.00722939
0.00267216
0.00715547
0.00270149
0.00704932
0.00693881
0.00272356
0.000281414
0.000575982
0.000951351
0.00245851
0.00169377
0.00435665
0.00230108
0.00574655
0.00272186
0.00656154
0.00298743
0.00694525
0.00315019
0.00706663
0.00325398
0.00705168
0.00332677
0.00697653
0.00687958
0.003386
0.000234747
0.000341235
0.000874483
0.00181878
0.00168281
0.00354832
0.00242405
0.00500532
0.00299329
0.0059923
0.00338756
0.00655098
0.0036483
0.00680588
0.0038229
0.00687708
0.00394781
0.00685162
0.00677991
0.00404748
0.000186263
0.000154971
0.000759061
0.00124598
0.0015814
0.00272598
0.00242999
0.00415673
0.0031529
0.00526939
0.00370012
0.00600376
0.00408753
0.00641848
0.00435681
0.0066078
0.00454957
0.00665887
0.00663178
0.0046977
0.0001401
1.48713e-05
0.000621745
0.000764335
0.00139874
0.00194899
0.00230204
0.00325343
0.00316006
0.00441137
0.00387418
0.00528963
0.00441951
0.00587315
0.00481709
0.00621022
0.00510578
0.00637018
0.00641769
0.00531987
9.87517e-05
-8.38804e-05
0.000480225
0.000382862
0.0011612
0.00126801
0.0020473
0.00236733
0.00298759
0.00347107
0.00385416
0.00442306
0.00457688
0.00515044
0.0051397
0.00564739
0.00556309
0.0059468
0.00610914
0.00587163
6.35203e-05
-0.000147401
0.000348534
9.78489e-05
0.00090429
0.000712254
0.00170268
0.00156895
0.0026438
0.00252995
0.00360542
0.00346144
0.00448855
0.00426731
0.00523649
0.00489945
0.0058375
0.00534578
0.00565984
0.00628681
3.53764e-05
-0.000182777
0.000236381
-0.000103156
0.000661859
0.000286776
0.00132521
0.000905595
0.00218242
0.00167274
0.00314683
0.00249703
0.00412153
0.00329262
0.00502473
0.00399625
0.0058133
0.00455721
0.00503427
0.00643887
1.58204e-05
-0.000198598
0.000151323
-0.000238659
0.000460813
-2.27136e-05
0.000974362
0.000392046
0.00168824
0.000958869
0.00256034
0.00162492
0.00352184
0.00233111
0.00449437
0.00302372
0.00541885
0.00363274
0.00421533
0.00623779
6.61072e-06
-0.000205208
9.91571e-05
-0.000331205
0.000319596
-0.000243152
0.000697605
1.40372e-05
0.00124843
0.000408043
0.00196443
0.000908923
0.0028124
0.00148315
0.00374034
0.00209578
0.00467781
0.00269527
0.00329586
0.00559728
7.83755e-06
-0.000213046
7.99088e-05
-0.000403277
0.000242819
-0.000406062
0.000517561
-0.000260705
0.000921997
3.60685e-06
0.00146562
0.000365302
0.002143
0.000805764
0.00293231
0.00130647
0.00379116
0.00183641
0.00239832
0.0046887
1.596e-05
-0.000229006
8.30684e-05
-0.000470385
0.000213749
-0.000536743
0.000419449
-0.000466405
0.000713099
-0.000290043
0.00110749
-2.909e-05
0.00161104
0.000302216
0.00222465
0.000692858
0.00293445
0.00112661
0.00159247
0.0037403
2.42442e-05
-0.00025325
8.90223e-05
-0.000535163
0.000196844
-0.000644564
0.000353348
-0.000622909
0.000566579
-0.000503274
0.000846556
-0.000309067
0.00120367
-5.48977e-05
0.0016464
0.000250124
0.00217636
0.000596651
0.000961721
0.00280711
2.56323e-05
-0.000278882
7.7664e-05
-0.000587195
0.0001547
-0.000721601
0.000261568
-0.000729776
0.000405101
-0.000646807
0.000593286
-0.000497251
0.000834855
-0.000296466
0.00113885
-5.38734e-05
0.00151444
0.000221067
0.000501659
0.0019745
1.57757e-05
-0.000294658
3.74985e-05
-0.000608918
6.65109e-05
-0.000750613
0.000110855
-0.00077412
0.000179524
-0.000715477
0.000281213
-0.00059894
0.000424341
-0.000439595
0.000617824
-0.000247357
0.000872524
-3.36331e-05
0.00017745
0.00119673
-5.46066e-06
-0.000289197
-3.0434e-05
-0.000583944
-6.47631e-05
-0.000716284
-9.48486e-05
-0.000744035
-0.000108147
-0.000702179
-9.39114e-05
-0.000613175
-4.26716e-05
-0.000490835
5.49981e-05
-0.000345026
0.000209076
-0.000187711
-3.72741e-05
0.0004238
-3.42154e-05
-0.000254982
-0.000114392
-0.000503768
-0.000217492
-0.000613184
-0.000323713
-0.000637814
-0.00041732
-0.000608572
-0.000485985
-0.00054451
-0.000519547
-0.000457272
-0.000508847
-0.000355727
-0.00044644
-0.000250118
-0.000152317
-0.000331397
-6.41611e-05
-0.000190821
-0.000197348
-0.000370581
-0.000362744
-0.000447788
-0.000535146
-0.000465411
-0.000696946
-0.000446772
-0.000835624
-0.000405833
-0.00094179
-0.000351106
-0.00100824
-0.000289278
-0.00103104
-0.000227315
-0.000171704
-0.00101166
-8.86022e-05
-0.000102219
-0.000262821
-0.000196362
-0.000474525
-0.000236084
-0.000694813
-0.000245124
-0.000905519
-0.000236065
-0.00109504
-0.000216315
-0.00125576
-0.000190383
-0.0013832
-0.000161834
-0.00147649
-0.000134025
-0.00010972
-0.00153848
-0.000102248
-0.000298679
-0.00053486
-0.000780101
-0.0010163
-0.00123275
-0.00142329
-0.00158527
-0.00171944
-0.0018293
0.0002921
-0.00212158
2.39593e-07
0.00313401
-0.00284412
2.20949e-06
0.00530011
-0.00216679
6.9658e-07
0.00648779
-0.00118745
-2.31377e-07
0.00700674
-0.000518482
-4.64983e-07
0.00718299
-0.000175895
-3.54677e-07
0.00721403
-3.08714e-05
-1.75731e-07
0.00718383
3.03798e-05
-1.80668e-07
0.00712945
5.452e-05
-1.35843e-07
6.79447e-05
-2.75644e-08
0.000715868
-0.00437577
0.00327067
-0.00539892
0.00532942
-0.00422555
0.00648169
-0.00233972
0.00699045
-0.00102725
0.00716618
-0.000351617
0.00720029
-6.49847e-05
0.0071744
5.62729e-05
0.00712469
0.000104226
0.000131064
0.00145392
-0.00684112
0.00353689
-0.0074819
0.00538695
-0.0060756
0.00646928
-0.00342205
0.00695797
-0.00151594
0.00713269
-0.000526328
0.0071729
-0.000105204
0.00715559
7.35889e-05
0.0071152
0.00014461
0.000184618
0.00232499
-0.00949725
0.00389927
-0.00905618
0.00546603
-0.00764236
0.00644893
-0.00440494
0.00690914
-0.00197615
0.00708268
-0.000699873
0.00713206
-0.000154579
0.00712754
7.81128e-05
0.00710106
0.000171091
0.000223903
0.00315729
-0.0122305
0.0042975
-0.0101964
0.00555173
-0.00889659
0.0064166
-0.00526981
0.00684323
-0.00240278
0.0070163
-0.000872943
0.007078
-0.00021628
0.00709042
6.56876e-05
0.00708234
0.000179179
0.000244303
0.00385442
-0.0148879
0.00466979
-0.0110118
0.0056239
-0.0098507
0.0063663
-0.0060122
0.00675896
-0.00279545
0.00693357
-0.00104755
0.007011
-0.000293707
0.00704448
3.22056e-05
0.00705917
0.000164492
0.000241325
0.00438143
-0.0172947
0.00496792
-0.0115982
0.00566202
-0.0105448
0.00629149
-0.00664168
0.00665485
-0.00315881
0.00683453
-0.00122723
0.00693138
-0.000390562
0.00698998
-2.63939e-05
0.00703169
0.000122777
0.000210617
0.00472562
-0.0192131
0.00515005
-0.0120227
0.00564797
-0.0110427
0.0061867
-0.0071804
0.00652971
-0.00350182
0.00671927
-0.00141679
0.00683951
-0.000510802
0.00692723
-0.000114114
0.00700008
4.99264e-05
0.000147996
0.00496091
-0.0204337
0.005216
-0.0122778
0.00557911
-0.0114058
0.00605015
-0.00765144
0.0063829
-0.00383457
0.00658792
-0.00162181
0.00673575
-0.00065863
0.00685655
-0.000234915
0.0069645
-5.80189e-05
4.94648e-05
0.00500642
-0.0207514
0.0052688
-0.0125401
0.00549605
-0.0116331
0.00588912
-0.00804451
0.00621087
-0.00415632
0.00643879
-0.00184974
0.00662009
-0.000839927
0.00677818
-0.000392999
0.00692507
-0.00020491
-8.88287e-05
0.0505053
-0.0117954
-0.0594612
0.0518639
-0.0138988
0.0472996
-0.00706879
0.0440306
-0.00477546
0.0429099
-0.00303562
0.0427146
-0.00165446
0.0427399
-0.000865292
0.0427948
-0.000447891
0.0428528
-0.000262871
-0.000125031
0.0501693
-0.0051888
-0.0567759
0.0468593
-0.0105888
0.0451206
-0.00533005
0.0435514
-0.00320631
0.0429126
-0.00239682
0.0427937
-0.00153557
0.0428065
-0.000878107
0.0428371
-0.000478489
0.0428743
-0.000300057
-0.000149994
0.0490065
-0.00158747
-0.0526078
0.0457722
-0.00735453
0.044715
-0.00427283
0.0437403
-0.00223161
0.0431529
-0.00180942
0.0429524
-0.00133516
0.0429031
-0.000828809
0.0428938
-0.000469143
0.0429027
-0.00030895
-0.000160827
0.0477456
0.000105327
-0.0494384
0.0452163
-0.0048252
0.0443498
-0.00340634
0.0437682
-0.00164996
0.0432885
-0.00132975
0.0430564
-0.00110302
0.0429719
-0.000744319
0.0429389
-0.00043622
0.0429276
-0.000297582
-0.000159746
0.0468371
0.000640615
-0.0473723
0.0448862
-0.00287433
0.0440775
-0.00259769
0.0437188
-0.00129127
0.0433661
-0.000977054
0.0431368
-0.000873717
0.0430289
-0.000636338
0.0429779
-0.000385296
0.0429501
-0.000269769
-0.00014827
0.0459178
0.000764391
-0.0460416
0.0446651
-0.00162166
0.0439523
-0.00188488
0.0436749
-0.00101384
0.0434095
-0.000711622
0.0431959
-0.000660196
0.0430736
-0.000513968
0.0430094
-0.000321154
0.0429691
-0.000229421
-0.000128317
0.0452565
0.000665717
-0.0451579
0.0444965
-0.0008616
0.0438922
-0.0012806
0.0436354
-0.000757043
0.0434258
-0.000501988
0.0432355
-0.000469905
0.0431072
-0.000385732
0.0430339
-0.000247823
0.0429842
-0.000179751
-0.000101785
0.0448039
0.000471385
-0.0446096
0.0443584
-0.000416109
0.0438617
-0.000783845
0.0436089
-0.000504291
0.0434301
-0.000323117
0.0432609
-0.000300748
0.0431315
-0.000256316
0.0430519
-0.000168287
0.0429956
-0.000123403
-7.04529e-05
0.0445129
0.000241904
-0.0442834
0.0442616
-0.000164863
0.0438478
-0.00037005
0.0435946
-0.00025112
0.0434298
-0.000158297
0.0432756
-0.000146559
0.0431471
-0.000127752
0.0430638
-8.50022e-05
0.0430031
-6.27385e-05
-3.59998e-05
0.0443733
-0.0441314
0.0442084
0.0438383
0.0435872
0.0434289
0.0432824
0.0431546
0.0430696
0.0430069
0.0536068
0.00175315
-0.0526363
0.05463
0.00236283
0.0556976
0.00297998
0.0568122
0.00358314
0.0579336
0.00419855
0.0590386
0.00476671
0.0599667
0.00535883
0.0605934
0.00581225
0.0605526
0.00627864
0.00668876
0.0490426
0.00120814
-0.0484976
0.0496643
0.00174112
0.0503682
0.00227612
0.0511437
0.00280763
0.0520061
0.00333608
0.052918
0.0038548
0.0539153
0.00436159
0.054876
0.00485152
0.0558648
0.0052899
0.00577762
0.0459508
0.00087319
-0.0456159
0.0463624
0.00132949
0.0468559
0.00178262
0.0474301
0.00223345
0.0480933
0.00267294
0.0488375
0.00311057
0.0496756
0.00352345
0.0505861
0.00394103
0.0515727
0.00430329
0.00474257
0.0440735
0.000636822
-0.0438371
0.0443831
0.00101983
0.0447659
0.00139988
0.045222
0.00177735
0.0457489
0.00214598
0.0463486
0.00251086
0.047015
0.00285713
0.0477537
0.0032023
0.0485467
0.00351033
0.00385079
0.0428415
0.000468519
-0.0426732
0.0430774
0.000783946
0.0433805
0.00109675
0.0437521
0.00140572
0.0441905
0.0017076
0.0446983
0.00200304
0.0452696
0.00228583
0.0459098
0.00256214
0.0466037
0.00281639
0.00308217
0.0420316
0.000338274
-0.0419014
0.0422276
0.000587991
0.0424888
0.000835532
0.042815
0.00107953
0.0432041
0.0013185
0.0436557
0.00155145
0.0441655
0.00177598
0.044735
0.00199267
0.0453563
0.00219514
0.00239686
0.0414983
0.000234503
-0.0413946
0.0416654
0.000420892
0.0418953
0.000605711
0.0421871
0.000787739
0.0425395
0.000966068
0.0429517
0.0011393
0.0434211
0.0013065
0.0439472
0.00146656
0.0445249
0.00161752
0.00176386
0.0411521
0.000147968
-0.0410655
0.0413011
0.000271816
0.0415123
0.000394577
0.0417846
0.000515382
0.042117
0.000633708
0.0425078
0.000748485
0.0429549
0.00085944
0.0434561
0.000965334
0.0440078
0.00106581
0.00116207
0.040947
7.13536e-05
-0.0408703
0.0410856
0.000133141
0.0412858
0.000194401
0.0415465
0.000254697
0.0418664
0.000313788
0.0422438
0.000371103
0.0426767
0.000426568
0.0431626
0.000479414
0.0436987
0.000529694
0.000577401
0.0408511
-0.0407798
0.0409843
0.0411787
0.0414334
0.0417472
0.0421183
0.0425448
0.0430243
0.043554
0.0471591
-0.00235449
-0.048273
0.0472936
-0.00305096
0.0476418
-0.00264796
0.048135
-0.00218555
0.0487099
-0.00166637
0.0493533
-0.00112826
0.0500707
-0.000583142
0.0508616
-2.3903e-05
0.0517191
0.000553598
0.00114698
0.046573
-0.00313793
-0.0457896
0.046585
-0.00306296
0.046587
-0.0026499
0.0466573
-0.00225584
0.0468132
-0.00182227
0.0470333
-0.00134837
0.0473052
-0.000855069
0.0476342
-0.000352921
0.0480296
0.000158208
0.000679005
0.0455127
-0.00304916
-0.0456015
0.0453196
-0.00286986
0.0451655
-0.00249578
0.0450438
-0.00213411
0.0449764
-0.00175487
0.0449752
-0.00134723
0.0450387
-0.000918586
0.0451646
-0.000478789
0.0453555
-3.26705e-05
0.000418629
0.0446559
-0.0027421
-0.044963
0.0443373
-0.00255127
0.0440793
-0.00223771
0.0438655
-0.00192037
0.0436998
-0.00158912
0.043593
-0.00124048
0.0435519
-0.000877467
0.0435781
-0.000505036
0.0436726
-0.00012716
0.000254148
0.044016
-0.0023621
-0.044396
0.0436374
-0.00217263
0.0433145
-0.00191479
0.0430428
-0.00164868
0.0428244
-0.00137076
0.0426647
-0.00108078
0.0425682
-0.000780885
0.0425369
-0.000473798
0.0425718
-0.000161999
0.000152718
0.0435365
-0.00192873
-0.0439699
0.043127
-0.00176317
0.0427702
-0.00155798
0.0424663
-0.00134481
0.0422181
-0.00112254
0.0420288
-0.000891492
0.0419011
-0.000653164
0.0418367
-0.000409366
0.0418365
-0.000161856
8.78584e-05
0.0432102
-0.00146441
-0.0436745
0.0427826
-0.00133555
0.0424072
-0.00118254
0.0420851
-0.00102277
0.0418188
-0.000856235
0.0416108
-0.000683473
0.0414631
-0.000505513
0.0413773
-0.000323556
0.0413543
-0.000138821
4.75674e-05
0.0430054
-0.000983584
-0.0434862
0.0425657
-0.000895926
0.0421776
-0.000794432
0.0418429
-0.000688056
0.0415638
-0.000577143
0.0413425
-0.000462199
0.0411809
-0.000343891
0.0410803
-0.00022296
0.0410417
-0.000100173
2.37183e-05
0.042884
-0.000493465
-0.0433741
0.0424373
-0.000449238
0.0420416
-0.000398688
0.0416992
-0.000345615
0.0414123
-0.000290269
0.041183
-0.000232934
0.0410131
-0.000173942
0.0409037
-0.000113645
0.040856
-5.24155e-05
9.37425e-06
0.0428272
-0.0433206
0.0423779
0.0419792
0.0416336
0.0413434
0.0411104
0.0409365
0.0408228
0.0407704
0.04292
0.000123215
-0.000114299
0.0428691
0.000425282
-0.000374349
0.0428489
0.000641683
-0.000621454
0.0428277
0.000958498
-0.000937386
0.0428654
0.00118616
-0.00122386
0.0429395
0.00157614
-0.00165018
0.0432127
0.00176664
-0.00203987
0.0437223
0.0022054
-0.00271497
0.0448655
0.00218491
-0.00332811
0.00114715
-0.00455463
0.0429501
0.000102031
0.0430428
0.000332588
0.0431718
0.000512725
0.0433987
0.000731611
0.0436933
0.00089153
0.0441561
0.00111328
0.0446938
0.00122896
0.0454406
0.00145866
0.0460743
0.00155121
0.00143182
0.0429601
7.08192e-05
0.0430761
0.000216653
0.0432401
0.000348744
0.0434734
0.000498248
0.0437541
0.000610881
0.0441064
0.000760994
0.0444819
0.000853392
0.0449207
0.00101993
0.0453818
0.00109003
0.00121217
0.0429533
4.64449e-05
0.0430324
0.000137569
0.0431471
0.000234037
0.043305
0.000340302
0.0434891
0.000426865
0.0437166
0.000533475
0.0439636
0.000606408
0.0442677
0.000715776
0.0445954
0.000762375
0.00084455
0.042944
3.14009e-05
0.0429881
9.34369e-05
0.0430602
0.000161988
0.0431645
0.000235966
0.0432928
0.000298549
0.0434563
0.000369979
0.0436419
0.000420764
0.0438687
0.000489022
0.0441099
0.00052116
0.000558426
0.0429387
2.15959e-05
0.0429679
6.43059e-05
0.0430192
0.000110609
0.0430957
0.000159548
0.0431926
0.000201638
0.0433147
0.000247862
0.0434534
0.000282071
0.0436166
0.000325853
0.0437884
0.000349309
0.000376981
0.0429363
1.42096e-05
0.0429588
4.17935e-05
0.0429976
7.17984e-05
0.0430541
0.000103045
0.0431252
0.000130562
0.0432128
0.000160238
0.0433115
0.000183438
0.0434256
0.000211698
0.0435465
0.00022848
0.000248906
0.0429347
8.47539e-06
0.0429517
2.47487e-05
0.0429807
4.28424e-05
0.0430222
6.15384e-05
0.0430744
7.8336e-05
0.0431385
9.61151e-05
0.0432115
0.000110495
0.043296
0.000127174
0.0433868
0.000137687
0.000149499
0.0429335
3.95029e-06
0.0429467
1.15419e-05
0.0429694
2.00764e-05
0.0430021
2.88471e-05
0.0430437
3.67847e-05
0.0430947
4.50521e-05
0.0431534
5.18297e-05
0.0432211
5.94849e-05