1.45 	0 	0 	-0.0242828 	-0.0182387 	4.21117e-21
2.35 	0 	0 	0.26919 	-0.0187524 	-1.27374e-21
