1.45 	0 	0 	0.0714036
2.35 	0 	0 	0.0327143
