1.45 	0 	0 	0.511187 	-0.0356003 	-1.36552e-22
2.35 	0 	0 	0.838223 	-0.00728012 	-6.32315e-22
