1.45 	0 	0 	-0.323665
2.35 	0 	0 	-0.0143364
