1.45 	0 	0 	-0.0523465 	-0.015064 	4.43286e-21
2.35 	0 	0 	0.190342 	-0.0183722 	-8.51709e-22
