1.45 	0 	0 	-0.341547
2.35 	0 	0 	-0.0552522
