1.45 	0 	0 	0.0612179
2.35 	0 	0 	0.0323086
