1.45 	0 	0 	-0.246737
2.35 	0 	0 	0.026314
