1.45 	0 	0 	-0.0548836
2.35 	0 	0 	0.0265314
