1.45 	0 	0 	-0.0736364 	-0.0125817 	4.58829e-21
2.35 	0 	0 	0.126881 	-0.0177511 	-4.01823e-22
