1.45 	0 	0 	0.0200685 	-0.0228244 	3.83391e-21
2.35 	0 	0 	0.376562 	-0.0185224 	-1.60191e-21
