1.45 	0 	0 	-0.340817
2.35 	0 	0 	-0.0528216
