1.45 	0 	0 	0.1013 	-0.0296312 	3.08462e-21
2.35 	0 	0 	0.523215 	-0.0167265 	-1.59546e-21
