1.45 	0 	0 	0.762031 	-0.0200218 	-6.69443e-22
2.35 	0 	0 	0.910022 	-0.00430698 	-6.35121e-22
