1.45 	0 	0 	-0.321708
2.35 	0 	0 	-0.0114964
