1.45 	0 	0 	0.805652 	-0.0154328 	-6.79801e-22
2.35 	0 	0 	0.923037 	-0.00370903 	-5.20252e-22
