1.45 	0 	0 	0.482484 	-0.036496 	4.18852e-24
2.35 	0 	0 	0.827192 	-0.00771192 	-6.3678e-22
