1.45 	0 	0 	-0.0935019 	-0.0102871 	4.72101e-21
2.35 	0 	0 	0.0675825 	-0.0169352 	1.08154e-22
