1.45 	0 	0 	0.033612 	-0.0241048 	3.71348e-21
2.35 	0 	0 	0.405095 	-0.0183092 	-1.64105e-21
