1.45 	0 	0 	0.0876718 	-0.0286365 	3.21389e-21
2.35 	0 	0 	0.502294 	-0.0170893 	-1.62686e-21
