1.45 	0 	0 	-0.341367
2.35 	0 	0 	-0.0546451
