1.45 	0 	0 	-0.150958
2.35 	0 	0 	0.0284204
