1.45 	0 	0 	-0.338654
2.35 	0 	0 	-0.0461143
