1.45 	0 	0 	-0.279469
2.35 	0 	0 	0.0193182
