1.45 	0 	0 	0.854232 	-0.0116597 	-1.05436e-21
2.35 	0 	0 	0.949302 	-0.00348584 	5.34846e-22
