1.45 	0 	0 	-0.338234
2.35 	0 	0 	-0.0448927
