1.45 	0 	0 	-0.343259
2.35 	0 	0 	-0.0612978
