1.45 	0 	0 	-0.102669 	-0.0092571 	4.7781e-21
2.35 	0 	0 	0.0409745 	-0.0165006 	3.65669e-22
