/*--------------------------------*- C++ -*----------------------------------*\
  =========                 |
  \\      /  F ield         | OpenFOAM: The Open Source CFD Toolbox
   \\    /   O peration     | Website:  https://openfoam.org
    \\  /    A nd           | Version:  6.0
     \\/     M anipulation  |
\*---------------------------------------------------------------------------*/
FoamFile
{
    version     2.0;
    format      ascii;
    class       volScalarField;
    location    "3";
    object      p;
}
// * * * * * * * * * * * * * * * * * * * * * * * * * * * * * * * * * * * * * //

dimensions      [0 2 -2 0 0 0 0];

internalField   nonuniform List<scalar> 
2000
(
-0.353885
-0.364968
-0.373774
-0.383139
-0.392421
-0.39977
-0.404193
-0.405837
-0.404374
-0.395984
-0.360529
-0.370521
-0.378909
-0.388189
-0.397599
-0.405219
-0.409855
-0.411395
-0.409614
-0.401308
-0.372294
-0.380239
-0.387803
-0.396868
-0.406473
-0.414601
-0.419733
-0.421255
-0.418931
-0.410662
-0.386623
-0.391822
-0.398105
-0.40663
-0.416243
-0.424878
-0.430712
-0.432506
-0.429668
-0.421265
-0.400762
-0.402876
-0.407313
-0.414623
-0.423588
-0.432232
-0.438575
-0.44086
-0.437808
-0.429065
-0.412635
-0.41177
-0.413786
-0.418941
-0.426216
-0.433911
-0.440061
-0.442637
-0.439675
-0.430236
-0.421388
-0.418084
-0.417328
-0.419517
-0.424135
-0.429923
-0.435044
-0.437347
-0.43456
-0.423725
-0.427457
-0.422481
-0.419004
-0.417955
-0.419518
-0.422933
-0.426496
-0.427895
-0.425109
-0.412172
-0.432273
-0.426294
-0.420511
-0.416586
-0.415373
-0.416436
-0.418045
-0.417577
-0.413554
-0.398287
-0.437788
-0.431119
-0.4236
-0.417542
-0.414143
-0.412914
-0.411762
-0.407554
-0.398541
-0.380048
-0.44589
-0.438406
-0.429613
-0.422089
-0.416868
-0.413027
-0.408028
-0.398495
-0.381601
-0.355992
-0.457864
-0.449075
-0.43915
-0.430383
-0.423108
-0.4158
-0.405821
-0.390389
-0.368463
-0.338663
-0.474216
-0.463429
-0.452148
-0.441823
-0.431683
-0.419756
-0.40392
-0.382787
-0.356404
-0.324784
-0.494898
-0.48141
-0.468277
-0.455608
-0.441351
-0.423645
-0.401593
-0.375331
-0.346041
-0.314616
-0.519616
-0.502832
-0.487159
-0.470893
-0.450967
-0.426514
-0.398272
-0.367621
-0.336237
-0.304788
-0.547866
-0.527299
-0.508169
-0.486549
-0.459329
-0.42753
-0.393468
-0.359185
-0.326222
-0.294865
-0.578705
-0.553948
-0.530057
-0.500966
-0.465126
-0.4259
-0.386644
-0.349395
-0.315131
-0.283546
-0.61047
-0.581235
-0.550753
-0.512151
-0.467028
-0.420834
-0.377194
-0.337614
-0.302294
-0.270575
-0.640633
-0.606807
-0.567568
-0.518025
-0.463783
-0.411539
-0.36443
-0.323113
-0.287
-0.255267
-0.665971
-0.627524
-0.577631
-0.5167
-0.454276
-0.397217
-0.347623
-0.305186
-0.268648
-0.237271
-0.683012
-0.639822
-0.578293
-0.506628
-0.437551
-0.377108
-0.32606
-0.283164
-0.246667
-0.21609
-0.688486
-0.640317
-0.567377
-0.486626
-0.412829
-0.350543
-0.299121
-0.256508
-0.220651
-0.191436
-0.679621
-0.626322
-0.543334
-0.455884
-0.379528
-0.316988
-0.266317
-0.22481
-0.190299
-0.163045
-0.654261
-0.596071
-0.505294
-0.413979
-0.337315
-0.276112
-0.227342
-0.187838
-0.155463
-0.130788
-0.610949
-0.548732
-0.453054
-0.360902
-0.286179
-0.227881
-0.182158
-0.145585
-0.116189
-0.0947542
-0.549033
-0.484314
-0.386984
-0.297023
-0.226429
-0.1726
-0.131105
-0.0984645
-0.073008
-0.0556525
-0.468778
-0.403601
-0.307932
-0.222962
-0.158518
-0.110701
-0.0747493
-0.047333
-0.0271594
-0.0150207
-0.371457
-0.308138
-0.217216
-0.139552
-0.0828066
-0.0422218
-0.0131108
0.00736722
0.0202744
0.0259329
-0.259354
-0.200257
-0.116796
-0.0481436
0.000116248
0.0331585
0.0550423
0.0675408
0.0716535
0.0702468
-0.135632
-0.0830034
-0.00937102
0.0489331
0.0883608
0.114342
0.130161
0.136487
0.134823
0.130178
-0.00411124
0.0400958
0.10191
0.14861
0.178469
0.197072
0.207353
0.210014
0.209422
0.222024
0.13098
0.165287
0.213896
0.248096
0.267469
0.277199
0.279888
0.277671
0.277753
0.291357
0.265201
0.288692
0.323401
0.344882
0.353804
0.354954
0.350649
0.343032
0.3382
0.344394
0.394138
0.406478
0.427164
0.435981
0.434474
0.427122
0.41612
0.403411
0.393662
0.392745
0.513589
0.51508
0.522397
0.519321
0.508053
0.492669
0.475069
0.456889
0.4419
0.434691
0.619648
0.611131
0.606293
0.59253
0.572562
0.550092
0.526736
0.503757
0.483991
0.470861
0.708907
0.691737
0.676508
0.653667
0.626304
0.597791
0.569527
0.542476
0.518638
0.500468
0.778484
0.754441
0.731033
0.701095
0.667968
0.634758
0.60268
0.572432
0.545321
0.523097
0.826145
0.797332
0.768283
0.733464
0.696379
0.659948
0.625265
0.592826
0.563431
0.538382
0.850365
0.819111
0.787185
0.749884
0.710787
0.672719
0.636712
0.603153
0.572582
0.546085
0.850366
0.819112
0.787186
0.749885
0.710787
0.672719
0.636712
0.603154
0.572582
0.546086
0.826149
0.797336
0.768286
0.733467
0.696382
0.65995
0.625267
0.592827
0.563433
0.538384
0.778491
0.754447
0.731038
0.701099
0.667972
0.634761
0.602683
0.572435
0.545323
0.523099
0.708916
0.691746
0.676516
0.653674
0.626309
0.597796
0.569532
0.54248
0.518642
0.500471
0.61966
0.611142
0.606302
0.592538
0.572569
0.550098
0.526741
0.503762
0.483996
0.470865
0.513603
0.515093
0.522408
0.51933
0.508061
0.492676
0.475076
0.456895
0.441905
0.434696
0.394155
0.406493
0.427177
0.435992
0.434483
0.427131
0.416128
0.403418
0.393668
0.392751
0.265219
0.288709
0.323415
0.344895
0.353815
0.354964
0.350658
0.34304
0.338207
0.344401
0.131
0.165305
0.213912
0.248109
0.267481
0.277209
0.279898
0.27768
0.277761
0.291364
-0.00408969
0.0401154
0.101927
0.148624
0.178482
0.197084
0.207363
0.210023
0.209431
0.222032
-0.135609
-0.0829827
-0.00935299
0.0489487
0.0883745
0.114354
0.130172
0.136497
0.134833
0.130187
-0.25933
-0.200235
-0.116777
-0.0481271
0.000130749
0.0331715
0.0550542
0.0675519
0.0716642
0.0702571
-0.371433
-0.308116
-0.217197
-0.139535
-0.0827916
-0.0422083
-0.0130984
0.00737866
0.0202852
0.0259433
-0.468754
-0.403578
-0.307912
-0.222945
-0.158503
-0.110687
-0.0747367
-0.0473214
-0.0271486
-0.0150105
-0.549009
-0.484291
-0.386964
-0.297005
-0.226414
-0.172586
-0.131093
-0.0984529
-0.0729972
-0.0556423
-0.610926
-0.548709
-0.453034
-0.360885
-0.286163
-0.227867
-0.182145
-0.145574
-0.116178
-0.0947441
-0.654238
-0.59605
-0.505275
-0.413961
-0.3373
-0.276098
-0.227329
-0.187827
-0.155453
-0.130778
-0.679599
-0.626301
-0.543314
-0.455867
-0.379513
-0.316974
-0.266304
-0.224799
-0.190289
-0.163035
-0.688465
-0.640297
-0.567358
-0.486609
-0.412814
-0.350529
-0.299109
-0.256497
-0.220641
-0.191426
-0.682992
-0.639803
-0.578275
-0.506611
-0.437536
-0.377095
-0.326048
-0.283153
-0.246657
-0.216081
-0.665952
-0.627505
-0.577614
-0.516684
-0.454262
-0.397204
-0.347611
-0.305176
-0.268638
-0.237262
-0.640615
-0.60679
-0.567551
-0.518009
-0.463769
-0.411526
-0.364419
-0.323102
-0.28699
-0.255258
-0.610454
-0.58122
-0.550737
-0.512136
-0.467014
-0.420822
-0.377183
-0.337604
-0.302284
-0.270566
-0.57869
-0.553933
-0.530042
-0.500952
-0.465113
-0.425887
-0.386633
-0.349385
-0.315122
-0.283538
-0.547852
-0.527286
-0.508156
-0.486536
-0.459316
-0.427519
-0.393457
-0.359175
-0.326212
-0.294856
-0.519604
-0.502821
-0.487147
-0.470881
-0.450955
-0.426502
-0.398261
-0.367611
-0.336228
-0.304779
-0.494887
-0.4814
-0.468266
-0.455598
-0.44134
-0.423634
-0.401582
-0.37532
-0.346032
-0.314608
-0.474206
-0.463419
-0.452138
-0.441814
-0.431673
-0.419746
-0.40391
-0.382776
-0.356395
-0.324776
-0.457855
-0.449066
-0.439141
-0.430374
-0.4231
-0.415791
-0.405811
-0.390379
-0.368453
-0.338653
-0.44588
-0.438397
-0.429605
-0.422081
-0.41686
-0.413019
-0.408019
-0.398484
-0.38159
-0.355982
-0.437778
-0.43111
-0.423592
-0.417535
-0.414136
-0.412906
-0.411753
-0.407544
-0.398528
-0.380034
-0.432263
-0.426285
-0.420502
-0.416579
-0.415366
-0.416429
-0.418037
-0.417566
-0.413541
-0.398272
-0.427446
-0.422471
-0.418995
-0.417946
-0.41951
-0.422924
-0.426485
-0.427882
-0.425094
-0.412156
-0.421375
-0.418072
-0.417317
-0.419507
-0.424125
-0.429912
-0.435031
-0.437332
-0.434542
-0.423706
-0.41262
-0.411757
-0.413774
-0.418929
-0.426204
-0.433897
-0.440044
-0.442619
-0.439654
-0.430213
-0.400748
-0.402863
-0.407301
-0.414611
-0.423574
-0.432216
-0.438556
-0.440839
-0.437785
-0.429041
-0.386609
-0.391809
-0.398093
-0.406618
-0.416228
-0.424861
-0.430693
-0.432486
-0.429647
-0.421243
-0.372282
-0.380229
-0.387793
-0.396857
-0.406461
-0.414588
-0.419718
-0.421238
-0.418914
-0.410644
-0.360522
-0.370514
-0.378902
-0.388182
-0.397591
-0.40521
-0.409845
-0.411384
-0.409602
-0.401296
-0.353882
-0.364966
-0.373771
-0.383137
-0.392418
-0.399767
-0.40419
-0.405833
-0.40437
-0.39598
-0.248073
0.0261492
0.0374954
0.0233158
0.0102466
0.00505947
0.00287229
0.00155849
0.00074761
0.00021787
-0.254948
0.0243336
0.0370957
0.0232144
0.0102058
0.00504265
0.00286673
0.00155634
0.000746471
0.00021742
-0.267933
0.0206209
0.0363177
0.0230156
0.0101249
0.00500904
0.00285558
0.00155202
0.000744187
0.00021655
-0.285427
0.0148817
0.0351826
0.0227259
0.0100049
0.00495872
0.00283885
0.00154556
0.000740764
0.000215252
-0.305041
0.00709985
0.0337097
0.022355
0.00984788
0.00489177
0.0028165
0.00153696
0.000736205
0.000213533
-0.323954
-0.00240664
0.0319509
0.0219203
0.00965673
0.00480817
0.00278839
0.00152618
0.000730492
0.0002114
-0.340419
-0.01334
0.0299213
0.021437
0.00943614
0.00470836
0.00275444
0.0015132
0.000723604
0.00020885
-0.355441
-0.0267444
0.0273136
0.0208841
0.00919437
0.00459556
0.00271577
0.00149852
0.000715715
0.000205933
-0.368688
-0.0442744
0.0237413
0.0202436
0.00894263
0.00447342
0.00267406
0.00148312
0.000707259
0.00020278
-0.366982
-0.059537
0.0206474
0.0196709
0.0086436
0.00431599
0.0026192
0.0014632
0.000696844
0.000199054
-0.30997
-0.0819418
0.0160935
0.0186619
0.00745503
0.00358221
0.0023431
0.00135915
0.000645781
0.000181732
-0.208453
-0.0808894
0.0053427
0.0126546
0.00409555
0.00167484
0.00144776
0.000971547
0.000474623
0.000130099
-0.137265
-0.0713024
-0.00572006
0.0071335
0.00217036
0.000445026
0.000665965
0.000572121
0.000291632
7.65504e-05
-0.0914544
-0.0604987
-0.0141844
0.00154471
0.00025552
-0.000668866
-0.000119446
0.000140209
9.44992e-05
2.171e-05
-0.0637952
-0.0497802
-0.0184202
-0.00291127
-0.00142494
-0.00154135
-0.000787685
-0.000266679
-9.84131e-05
-3.13723e-05
-0.0455479
-0.0404935
-0.0201248
-0.00641031
-0.00300849
-0.0022795
-0.00134235
-0.00062996
-0.000277556
-8.04058e-05
-0.0340115
-0.033554
-0.0205135
-0.00892827
-0.00437644
-0.00288824
-0.00177631
-0.000930529
-0.000432091
-0.000122804
-0.0268613
-0.0286018
-0.0202232
-0.0105707
-0.00544671
-0.00336526
-0.00209556
-0.00115953
-0.000554269
-0.000156587
-0.0226568
-0.0254397
-0.0197923
-0.0115401
-0.00617807
-0.00369687
-0.0023056
-0.00131303
-0.00063853
-0.000180072
-0.0207273
-0.0239117
-0.0195153
-0.0119868
-0.00654797
-0.00386691
-0.00240964
-0.00138984
-0.000681461
-0.000192078
-0.128134
-0.141319
-0.152827
-0.163048
-0.171484
-0.178762
-0.184128
-0.190746
-0.200123
-0.223877
-0.0685422
-0.0760636
-0.0828064
-0.089294
-0.0958951
-0.10334
-0.111889
-0.121926
-0.13282
-0.144977
-0.0394387
-0.045595
-0.0516888
-0.0577899
-0.0637768
-0.0692469
-0.0738137
-0.0772342
-0.080524
-0.0858103
-0.02494
-0.0289733
-0.0326119
-0.0358074
-0.0385926
-0.0410525
-0.0435436
-0.0464018
-0.0501557
-0.0548903
-0.0160221
-0.0188954
-0.0216671
-0.0244205
-0.0272678
-0.0302597
-0.0334178
-0.0366004
-0.0397289
-0.042718
-0.0119742
-0.0143288
-0.0166299
-0.018871
-0.021034
-0.023074
-0.0249673
-0.0267138
-0.0284272
-0.0303196
-0.00939069
-0.0111145
-0.0127661
-0.0143445
-0.0158558
-0.0173122
-0.0187351
-0.0201526
-0.0215901
-0.0231087
-0.00782905
-0.00919856
-0.0105337
-0.0118369
-0.0131104
-0.0143561
-0.0155695
-0.016753
-0.0178968
-0.019041
-0.00703738
-0.00819849
-0.0093345
-0.0104431
-0.0115204
-0.0125659
-0.0135736
-0.0145508
-0.0154876
-0.0164196
-0.00669138
-0.00773868
-0.00876436
-0.00976669
-0.0107428
-0.0116935
-0.0126138
-0.0135109
-0.0143707
-0.0152196
0.103841
0.0664025
0.0373167
0.0148522
-0.00740121
-0.0312635
-0.0549683
-0.0767839
-0.0961275
-0.113191
0.0770096
0.0598491
0.0375888
0.0180278
0.00247091
-0.0114262
-0.0250286
-0.0380495
-0.0497691
-0.0599019
0.0538202
0.0440698
0.0300358
0.0163729
0.00543302
-0.00330818
-0.0111662
-0.0187847
-0.0261251
-0.0330079
0.0363198
0.0292798
0.0203168
0.0118135
0.00481049
-0.000908936
-0.00601414
-0.0109616
-0.0158406
-0.0205384
0.0241405
0.0195262
0.0139293
0.00865106
0.00417954
0.00037149
-0.00310649
-0.00647674
-0.00978714
-0.0129851
0.0163273
0.0134156
0.00986166
0.0063814
0.00328465
0.000527727
-0.00205467
-0.00458201
-0.0070888
-0.00955905
0.0110311
0.00902268
0.00663364
0.00424409
0.00202977
-1.45465e-05
-0.00196243
-0.00387037
-0.0057535
-0.00759946
0.00741704
0.0059445
0.00427474
0.00259078
0.000977377
-0.000562956
-0.00205895
-0.00353302
-0.00499038
-0.00642493
0.00519315
0.00403307
0.00277685
0.00150141
0.000242556
-0.000996095
-0.00222253
-0.00344224
-0.0046545
-0.00585463
0.00414385
0.0031166
0.00203863
0.000942133
-0.000157853
-0.0012577
-0.00235704
-0.00345411
-0.00454517
-0.0056257
0.240126
0.240356
0.240805
0.240854
0.239933
0.236896
0.230332
0.21712
0.193022
0.150724
0.176603
0.175443
0.17273
0.168436
0.162106
0.153394
0.141529
0.126676
0.108888
0.0904544
0.123649
0.122244
0.119192
0.114665
0.108697
0.101486
0.092987
0.0835596
0.0731291
0.062094
0.0851789
0.0841822
0.0821098
0.0790849
0.0751623
0.0704994
0.0650119
0.0587802
0.051507
0.0432376
0.0589901
0.0583755
0.0571001
0.055165
0.0525283
0.0492289
0.0451956
0.0404997
0.0350557
0.0290426
0.0411584
0.0407273
0.0398208
0.0384108
0.0364547
0.0339785
0.0309756
0.0275389
0.0236822
0.0195665
0.0289904
0.0286597
0.0279719
0.0269134
0.025469
0.0236639
0.0215068
0.0190571
0.0163221
0.0133845
0.0209904
0.0207375
0.0202193
0.0194266
0.0183508
0.0170056
0.0153964
0.0135556
0.0114899
0.00924703
0.016181
0.0159787
0.0155662
0.0149327
0.0140707
0.0129872
0.0116896
0.0102
0.00852866
0.00670331
0.0139259
0.0137461
0.0133802
0.0128176
0.0120524
0.0110902
0.0099398
0.00861842
0.00713611
0.0055088
0.342189
0.345398
0.352057
0.362148
0.375934
0.393517
0.415584
0.442221
0.474572
0.512288
0.340312
0.3435
0.350079
0.359983
0.373496
0.390702
0.412296
0.438297
0.46986
0.506394
0.336637
0.339782
0.346206
0.355744
0.368724
0.385192
0.405853
0.430593
0.46059
0.494743
0.331312
0.334392
0.34059
0.349603
0.361811
0.377202
0.396493
0.41935
0.446984
0.4775
0.324541
0.327532
0.333445
0.341793
0.353022
0.367025
0.384532
0.404893
0.429342
0.454887
0.31656
0.319446
0.325026
0.3326
0.342672
0.355012
0.370346
0.387617
0.408036
0.427218
0.307618
0.310387
0.315614
0.322346
0.331137
0.341582
0.354371
0.367961
0.3835
0.394802
0.297951
0.300591
0.305477
0.311359
0.318833
0.327256
0.337209
0.346507
0.356202
0.358148
0.287784
0.290236
0.294782
0.299847
0.30606
0.312463
0.319557
0.324263
0.326757
0.318073
0.277349
0.27946
0.283472
0.287653
0.292575
0.296977
0.301387
0.302005
0.297879
0.274611
0.277352
0.279463
0.283475
0.287656
0.292579
0.296981
0.301391
0.30201
0.297884
0.274617
0.287787
0.290239
0.294785
0.29985
0.306063
0.312466
0.319561
0.324267
0.326762
0.318078
0.297954
0.300594
0.30548
0.311362
0.318836
0.327259
0.337213
0.346511
0.356207
0.358154
0.30762
0.310389
0.315616
0.322348
0.331139
0.341585
0.354374
0.367965
0.383504
0.394807
0.316562
0.319448
0.325028
0.332602
0.342674
0.355014
0.370348
0.38762
0.408039
0.427222
0.324542
0.327534
0.333447
0.341795
0.353024
0.367028
0.384534
0.404895
0.429345
0.454891
0.331314
0.334393
0.340592
0.349604
0.361813
0.377204
0.396494
0.419352
0.446987
0.477503
0.336638
0.339783
0.346207
0.355745
0.368725
0.385193
0.405855
0.430594
0.460591
0.494745
0.340313
0.343501
0.35008
0.359983
0.373497
0.390703
0.412296
0.438298
0.469861
0.506396
0.342189
0.345398
0.352057
0.362148
0.375935
0.393517
0.415584
0.442221
0.474572
0.512288
0.0139313
0.0137515
0.0133857
0.0128231
0.0120579
0.0110957
0.00994528
0.00862386
0.0071415
0.00551415
0.0161864
0.0159841
0.0155716
0.0149381
0.014076
0.0129925
0.011695
0.0102055
0.0085343
0.00670907
0.0209958
0.0207429
0.0202248
0.019432
0.0183563
0.0170111
0.0154019
0.0135611
0.0114953
0.00925236
0.0289956
0.0286649
0.0279771
0.0269187
0.0254742
0.0236691
0.021512
0.0190623
0.0163273
0.0133898
0.0411636
0.0407326
0.0398261
0.0384161
0.0364601
0.0339838
0.0309809
0.0275442
0.0236875
0.0195718
0.0589952
0.0583806
0.0571052
0.0551701
0.0525335
0.0492341
0.0452009
0.040505
0.0350611
0.029048
0.085184
0.0841873
0.0821149
0.07909
0.0751674
0.0705045
0.065017
0.0587852
0.051512
0.0432428
0.123654
0.122249
0.119197
0.11467
0.108702
0.101491
0.0929922
0.0835648
0.0731345
0.0620994
0.176608
0.175448
0.172734
0.16844
0.162111
0.153398
0.141535
0.126681
0.108894
0.0904607
0.24013
0.24036
0.240809
0.240858
0.239937
0.2369
0.230337
0.217126
0.193028
0.150731
0.00414924
0.00312204
0.0020441
0.000947601
-0.000152421
-0.00125233
-0.00235173
-0.00344887
-0.00453998
-0.00562055
0.00519881
0.00403859
0.00278229
0.00150681
0.00024792
-0.000990778
-0.00221727
-0.00343705
-0.00464936
-0.00584954
0.00742233
0.0059498
0.0042801
0.00259618
0.000982748
-0.000557646
-0.0020537
-0.0035278
-0.00498517
-0.00641972
0.0110365
0.00902821
0.00663922
0.00424964
0.00203521
-9.23292e-06
-0.00195721
-0.00386521
-0.0057484
-0.0075944
0.0163326
0.013421
0.00986708
0.00638677
0.00328992
0.000532919
-0.00204953
-0.00457689
-0.0070837
-0.00955396
0.0241459
0.0195315
0.0139345
0.00865616
0.00418452
0.000376394
-0.00310164
-0.00647193
-0.00978237
-0.0129804
0.0363251
0.0292852
0.0203222
0.0118187
0.0048156
-0.000903916
-0.00600916
-0.0109566
-0.0158356
-0.0205335
0.0538257
0.0440754
0.0300411
0.0163779
0.00543785
-0.00330335
-0.0111614
-0.0187798
-0.0261202
-0.033003
0.0770162
0.0598557
0.0375948
0.0180331
0.00247588
-0.0114213
-0.0250237
-0.0380448
-0.0497645
-0.0598976
0.10385
0.0664117
0.0373253
0.0148602
-0.00739358
-0.031256
-0.054961
-0.0767768
-0.0961208
-0.113185
-0.00668622
-0.0077335
-0.0087592
-0.00976156
-0.0107377
-0.0116885
-0.0126088
-0.013506
-0.0143658
-0.0152148
-0.0070323
-0.00819342
-0.00932949
-0.0104381
-0.0115155
-0.0125611
-0.0135688
-0.0145461
-0.015483
-0.016415
-0.00782383
-0.00919336
-0.0105285
-0.0118317
-0.0131052
-0.014351
-0.0155644
-0.016748
-0.0178918
-0.0190361
-0.00938565
-0.0111095
-0.0127611
-0.0143397
-0.0158511
-0.0173076
-0.0187306
-0.0201482
-0.0215858
-0.0231044
-0.0119692
-0.0143238
-0.0166249
-0.018866
-0.021029
-0.0230691
-0.0249626
-0.0267092
-0.0284227
-0.0303153
-0.0160175
-0.0188908
-0.0216625
-0.0244158
-0.027263
-0.0302548
-0.0334127
-0.0365952
-0.0397237
-0.0427128
-0.0249351
-0.0289684
-0.0326072
-0.0358029
-0.0385883
-0.0410483
-0.0435395
-0.0463978
-0.0501516
-0.054886
-0.0394337
-0.04559
-0.0516837
-0.0577846
-0.0637713
-0.0692412
-0.0738082
-0.0772291
-0.0805194
-0.0858059
-0.0685382
-0.0760598
-0.0828025
-0.08929
-0.0958908
-0.103335
-0.111883
-0.121919
-0.132812
-0.144969
-0.128128
-0.141314
-0.152822
-0.163043
-0.17148
-0.178758
-0.184124
-0.190743
-0.20012
-0.223872
-0.0207232
-0.023908
-0.0195127
-0.0119849
-0.00654642
-0.00386565
-0.00240871
-0.00138929
-0.000681192
-0.000191973
-0.0226526
-0.0254363
-0.0197898
-0.0115383
-0.00617652
-0.00369564
-0.0023047
-0.00131251
-0.000638249
-0.000179968
-0.026857
-0.0285985
-0.0202208
-0.0105688
-0.00544515
-0.00336409
-0.00209472
-0.00115903
-0.000554026
-0.0001565
-0.0340074
-0.0335508
-0.0205111
-0.00892635
-0.00437489
-0.00288716
-0.00177554
-0.000930064
-0.000431905
-0.000122735
-0.0455438
-0.0404905
-0.0201226
-0.00640834
-0.00300697
-0.00227852
-0.00134166
-0.000629534
-0.000277404
-8.03451e-05
-0.0637909
-0.0497771
-0.0184182
-0.00290939
-0.0014235
-0.00154046
-0.00078705
-0.000266289
-9.82763e-05
-3.13161e-05
-0.0914495
-0.0604954
-0.0141828
0.00154641
0.000256786
-0.000668077
-0.000118863
0.000140535
9.46159e-05
2.17741e-05
-0.137259
-0.0712989
-0.00571874
0.00713494
0.00217142
0.000445729
0.000666514
0.000572335
0.00029169
7.66345e-05
-0.208443
-0.0808856
0.0053435
0.0126558
0.00409641
0.00167535
0.00144826
0.000971695
0.000474612
0.000130174
-0.309952
-0.0819384
0.0160927
0.0186625
0.00745576
0.00358257
0.00234345
0.00135926
0.000645784
0.000181809
-0.366953
-0.059535
0.0206461
0.0196714
0.00864416
0.00431627
0.00261949
0.00146333
0.000696866
0.000199133
-0.368656
-0.0442734
0.02374
0.020244
0.00894313
0.00447367
0.00267432
0.00148324
0.000707275
0.000202854
-0.355408
-0.0267447
0.0273123
0.0208845
0.00919482
0.00459579
0.002716
0.00149861
0.00071572
0.000206
-0.340386
-0.0133411
0.0299199
0.0214373
0.00943654
0.00470855
0.00275465
0.00151328
0.000723601
0.00020891
-0.323922
-0.00240834
0.0319496
0.0219205
0.00965708
0.00480834
0.00278857
0.00152624
0.000730483
0.000211453
-0.30501
0.00709769
0.0337086
0.0223552
0.00984817
0.00489191
0.00281665
0.001537
0.000736192
0.00021358
-0.2854
0.0148794
0.0351817
0.022726
0.0100052
0.00495883
0.00283896
0.00154558
0.000740748
0.000215291
-0.267912
0.0206188
0.036317
0.0230157
0.010125
0.00500911
0.00285565
0.00155203
0.000744171
0.000216583
-0.254935
0.0243322
0.0370953
0.0232145
0.0102059
0.00504269
0.00286676
0.00155633
0.000746459
0.00021745
-0.248068
0.0261487
0.0374953
0.0233158
0.0102466
0.00505949
0.00287229
0.00155848
0.000747607
0.000217884
)
;

boundaryField
{
    inlet
    {
        type            zeroGradient;
    }
    outlet
    {
        type            fixedValue;
        value           uniform 0;
    }
    cylinder
    {
        type            zeroGradient;
    }
    top
    {
        type            symmetryPlane;
    }
    bottom
    {
        type            symmetryPlane;
    }
    defaultFaces
    {
        type            empty;
    }
}


// ************************************************************************* //
