/*--------------------------------*- C++ -*----------------------------------*\
  =========                 |
  \\      /  F ield         | OpenFOAM: The Open Source CFD Toolbox
   \\    /   O peration     | Website:  https://openfoam.org
    \\  /    A nd           | Version:  6.0
     \\/     M anipulation  |
\*---------------------------------------------------------------------------*/
FoamFile
{
    version     2.0;
    format      ascii;
    class       volVectorField;
    location    "3";
    object      U;
}
// * * * * * * * * * * * * * * * * * * * * * * * * * * * * * * * * * * * * * //

dimensions      [0 1 -1 0 0 0 0];

internalField   nonuniform List<vector> 
2000
(
(-0.0181544 0.0160703 6.04452e-20)
(-0.0669072 0.0277069 5.9461e-20)
(-0.13066 0.0292942 -5.37957e-20)
(-0.186658 0.0262238 -1.07028e-19)
(-0.229475 0.0208357 -7.40491e-20)
(-0.258788 0.0142739 9.55905e-20)
(-0.275264 0.00731438 5.58581e-20)
(-0.281448 0.0007036 -2.10522e-20)
(-0.279815 -0.00472239 -5.33676e-20)
(-0.265647 -0.00826357 2.91598e-20)
(-0.0201121 0.0458105 -1.51409e-19)
(-0.0665004 0.0801359 1.73112e-19)
(-0.124609 0.085737 1.84629e-20)
(-0.175083 0.0775893 -9.20048e-20)
(-0.213142 0.062393 4.32119e-19)
(-0.238446 0.0434725 -1.87099e-19)
(-0.251421 0.0230558 -2.01529e-19)
(-0.254102 0.00329127 2.37926e-19)
(-0.248894 -0.0133078 -2.27053e-19)
(-0.232059 -0.0243462 8.78011e-20)
(-0.0233278 0.0688899 2.49379e-20)
(-0.0654118 0.124003 8.02166e-21)
(-0.112891 0.135758 4.98623e-19)
(-0.152471 0.125442 1.75328e-19)
(-0.180682 0.103209 4.02289e-20)
(-0.197313 0.0742594 2.73411e-19)
(-0.202557 0.041971 -5.08898e-19)
(-0.197664 0.00956159 7.26367e-21)
(-0.184728 -0.0189152 -2.89443e-19)
(-0.161933 -0.0387033 2.34044e-19)
(-0.0267142 0.082337 -4.82065e-20)
(-0.0634685 0.15443 2.31704e-19)
(-0.0969361 0.174592 -6.32488e-19)
(-0.121183 0.165961 -8.0167e-20)
(-0.134676 0.14077 -4.49247e-19)
(-0.137663 0.105646 4.6298e-19)
(-0.130437 0.0646805 -4.81961e-19)
(-0.113605 0.0215217 3.28055e-19)
(-0.0885196 -0.0188725 1.33778e-19)
(-0.0557702 -0.0490716 -1.12048e-19)
(-0.0292686 0.0852878 -5.43408e-19)
(-0.0609295 0.168272 2.54371e-21)
(-0.0795746 0.197584 7.84634e-19)
(-0.0862774 0.193884 2.42715e-19)
(-0.0818592 0.169889 -7.13729e-19)
(-0.0673937 0.133123 4.33162e-19)
(-0.0436418 0.0880391 5.02153e-19)
(-0.0110318 0.0380442 -4.35825e-19)
(0.0301539 -0.0121747 3.07698e-19)
(0.0780489 -0.0534691 5.73751e-20)
(-0.030503 0.0792985 7.48771e-20)
(-0.0584125 0.165287 1.21925e-20)
(-0.0641865 0.20174 -9.82883e-19)
(-0.0541209 0.204011 -5.41834e-19)
(-0.0313802 0.183808 6.36167e-19)
(0.00195995 0.148906 -7.28144e-19)
(0.0446335 0.103926 8.4234e-19)
(0.0960799 0.0518271 -6.50042e-20)
(0.156588 -0.00390783 -2.30718e-19)
(0.227162 -0.0542273 -4.96059e-19)
(-0.0306634 0.0678063 -1.53662e-19)
(-0.056544 0.148661 -2.27644e-19)
(-0.052997 0.187552 -2.71611e-19)
(-0.0290264 0.194 5.5735e-19)
(0.0104562 0.177728 1.02877e-18)
(0.0626155 0.146022 -1.99321e-19)
(0.126027 0.103426 -5.29397e-19)
(0.200135 0.0527168 1.54977e-19)
(0.283444 -0.0040022 -9.84326e-19)
(0.386848 -0.057984 7.95452e-19)
(-0.0305998 0.0548245 9.30328e-19)
(-0.0555472 0.124058 -4.03513e-19)
(-0.0455624 0.159472 7.7548e-19)
(-0.00999125 0.166313 -1.21578e-18)
(0.0456191 0.152119 -5.75256e-19)
(0.118304 0.123114 -7.86899e-19)
(0.206649 0.0834413 2.10842e-19)
(0.309944 0.0361133 -6.52896e-19)
(0.420723 -0.0181411 1.38144e-18)
(0.565542 -0.0680771 2.83948e-19)
(-0.0312284 0.0435033 4.79785e-20)
(-0.0546478 0.0974835 6.58477e-19)
(-0.0378868 0.124362 1.22954e-18)
(0.0108796 0.1277 3.76296e-19)
(0.086524 0.11333 1.06402e-18)
(0.186054 0.0862889 6.19238e-20)
(0.306722 0.0501419 -2.35956e-20)
(0.445559 0.00820116 4.05909e-19)
(0.586618 -0.0398107 3.59928e-19)
(0.768116 -0.07871 -8.40284e-19)
(-0.0327971 0.0352403 -5.12881e-19)
(-0.0514443 0.0732041 -7.12636e-19)
(-0.0225815 0.0889447 -1.00149e-18)
(0.0469293 0.0867048 1.19914e-20)
(0.152142 0.0714568 -4.84369e-19)
(0.28802 0.0473631 7.41771e-19)
(0.446811 0.0173487 -2.0334e-18)
(0.619166 -0.0159841 8.98116e-19)
(0.784134 -0.0514791 3.61543e-19)
(0.973286 -0.0803054 8.2137e-19)
(-0.03446 0.0296498 2.57217e-19)
(-0.0420088 0.0528049 -7.91402e-19)
(0.00913125 0.0577678 6.72136e-19)
(0.111723 0.0507735 -2.53181e-19)
(0.258201 0.0366523 2.6378e-19)
(0.436963 0.0188383 5.70345e-19)
(0.631289 -0.000821917 -7.38676e-19)
(0.823739 -0.021586 1.03509e-19)
(0.993219 -0.0398753 -3.36336e-19)
(1.14222 -0.0734871 3.88305e-19)
(-0.0344777 0.0252775 3.46478e-19)
(-0.0218942 0.0356506 -7.01888e-19)
(0.0644905 0.0327102 9.18037e-19)
(0.213219 0.0246571 -5.52006e-19)
(0.408403 0.0160129 -1.94803e-19)
(0.626705 0.00861376 1.10416e-19)
(0.841887 0.00205674 6.32349e-20)
(1.03339 -0.0039338 7.35374e-19)
(1.18142 -0.0111571 2.12262e-19)
(1.30315 -0.0206843 5.55806e-19)
(-0.0307821 0.0206241 -3.03246e-19)
(0.0129554 0.0203892 8.96934e-19)
(0.147765 0.0142998 -7.24778e-19)
(0.351679 0.0110882 -8.24494e-19)
(0.593114 0.0131433 1.10091e-18)
(0.835131 0.0188323 -8.08709e-19)
(1.04749 0.0248632 2.05342e-19)
(1.2134 0.0290463 -1.10579e-18)
(1.32663 0.029367 7.94942e-19)
(1.40365 0.0271991 1.86814e-20)
(-0.0214194 0.0149297 -3.92018e-19)
(0.0659323 0.00665189 -3.21574e-19)
(0.260262 0.00381962 -6.62803e-19)
(0.52016 0.0123141 7.59785e-19)
(0.793202 0.0288205 -3.64564e-20)
(1.03457 0.0469495 4.55795e-19)
(1.22017 0.0614378 7.75891e-19)
(1.34557 0.0703184 -2.2957e-19)
(1.41763 0.0727273 -6.89731e-19)
(1.45359 0.0724225 1.05371e-18)
(-0.00470146 0.00841589 -2.04869e-19)
(0.139544 -0.00396567 -2.06584e-19)
(0.399707 0.00431044 3.63271e-19)
(0.705196 0.0301255 -6.35531e-19)
(0.98607 0.0611127 1.04559e-19)
(1.20267 0.0874714 8.93088e-20)
(1.3467 0.104784 2.2448e-20)
(1.42844 0.11319 -1.93543e-20)
(1.46431 0.113774 -9.40354e-20)
(1.4732 0.112234 -8.73421e-19)
(0.0207764 0.00212244 8.43736e-19)
(0.234655 -0.0080017 -4.99611e-19)
(0.558839 0.0194416 6.91938e-21)
(0.88924 0.0643825 -6.91805e-19)
(1.15303 0.105794 -2.29424e-19)
(1.32919 0.134562 2.13543e-19)
(1.42849 0.149875 1.40254e-19)
(1.47259 0.15475 -4.95593e-19)
(1.48223 0.152273 3.65403e-19)
(1.47339 0.148566 -3.70405e-19)
(0.0560399 -0.00234087 3.73019e-19)
(0.349312 -0.00107869 -2.91612e-19)
(0.725525 0.051316 1.10842e-18)
(1.05592 0.112439 1.07092e-19)
(1.28442 0.15804 2.32559e-19)
(1.41511 0.184045 9.48825e-19)
(1.4746 0.194357 -1.46999e-19)
(1.49026 0.194416 1.04369e-19)
(1.48243 0.188452 3.36562e-20)
(1.46438 0.182586 -4.72325e-20)
(0.101478 -0.00297256 2.71953e-19)
(0.477877 0.0206731 5.38383e-19)
(0.885889 0.0993079 -5.43764e-19)
(1.19464 0.170367 -1.68887e-19)
(1.37911 0.214035 -1.92478e-19)
(1.46703 0.233694 2.86531e-19)
(1.49485 0.237528 -1.34895e-19)
(1.49082 0.232454 3.47495e-19)
(1.47254 0.223339 1.05917e-19)
(1.44945 0.215156 -1.38881e-19)
(0.156479 0.00242409 -2.95929e-19)
(0.611452 0.0592328 2.27083e-19)
(1.02838 0.16067 -4.46765e-19)
(1.30128 0.234384 1.77984e-19)
(1.44074 0.271263 -1.71997e-19)
(1.49247 0.282466 -1.96008e-19)
(1.49707 0.279293 -1.42744e-19)
(1.48044 0.269248 1.51982e-19)
(1.4563 0.257169 -2.68293e-19)
(1.43121 0.246543 1.30305e-19)
(0.219134 0.0159084 -1.09511e-19)
(0.739889 0.114064 -1.80245e-19)
(1.14575 0.231759 8.09582e-20)
(1.37617 0.301381 6.46813e-21)
(1.47451 0.328091 5.67453e-20)
(1.49791 0.329839 6.93151e-20)
(1.48668 0.319689 5.77928e-20)
(1.46264 0.304978 -7.4885e-20)
(1.43566 0.290125 5.96046e-20)
(1.41004 0.27671 -7.30449e-20)
(0.286166 0.0389638 -6.98706e-20)
(0.854215 0.182517 -2.42073e-20)
(1.2347 0.308808 7.53117e-20)
(1.42188 0.368858 -3.40258e-20)
(1.48549 0.383357 7.41808e-20)
(1.4882 0.375411 -8.97545e-20)
(1.46708 0.358578 2.07711e-20)
(1.43926 0.339494 2.00288e-20)
(1.41131 0.321819 -7.34872e-21)
(1.38623 0.305273 2.29075e-20)
(0.353233 0.0720995 -8.31475e-20)
(0.948018 0.260736 -2.87181e-19)
(1.2947 0.388223 -1.7023e-20)
(1.44179 0.434737 4.21461e-21)
(1.47795 0.436078 -2.62548e-19)
(1.46671 0.418691 3.31449e-20)
(1.44024 0.395592 -2.63705e-20)
(1.41115 0.372385 -5.87995e-20)
(1.38351 0.351809 1.1697e-19)
(1.35972 0.331871 -1.6639e-19)
(0.415548 0.114633 -4.6357e-20)
(1.01756 0.34442 6.11725e-19)
(1.32691 0.466688 6.39208e-20)
(1.43933 0.497192 -4.32128e-19)
(1.45526 0.485276 -4.27827e-20)
(1.4357 0.458999 -3.27356e-19)
(1.40729 0.430096 2.23755e-19)
(1.37872 0.402978 -7.67085e-20)
(1.35234 0.379383 1.34165e-19)
(1.33047 0.355945 -7.76376e-20)
(0.468628 0.164724 -2.62387e-19)
(1.06133 0.429279 2.17238e-19)
(1.33344 0.541205 -1.24611e-19)
(1.41769 0.554544 8.43331e-19)
(1.42 0.529905 3.57286e-19)
(1.3967 0.495475 -7.67387e-20)
(1.36894 0.461268 2.50127e-19)
(1.34224 0.430468 -1.54651e-19)
(1.31793 0.403847 -4.13955e-20)
(1.29858 0.377068 2.21725e-19)
(0.508893 0.219608 -4.70844e-19)
(1.07943 0.51124 5.17551e-19)
(1.31693 0.609089 -8.35139e-19)
(1.37976 0.605209 1.15304e-19)
(1.37426 0.56884 1.94787e-19)
(1.35087 0.527125 -2.81878e-19)
(1.32575 0.488151 -3.17188e-19)
(1.30204 0.453937 1.40203e-19)
(1.28057 0.424401 -1.63925e-19)
(1.26424 0.394662 1.67917e-19)
(0.533989 0.275935 -1.1863e-19)
(1.07313 0.586533 -5.1621e-19)
(1.28021 0.667937 2.55118e-19)
(1.32813 0.64766 3.66623e-19)
(1.31979 0.600902 -1.99733e-19)
(1.29924 0.552902 -1.33832e-19)
(1.27839 0.509791 -9.39145e-20)
(1.25871 0.472503 -4.10682e-20)
(1.24091 0.440306 8.1364e-22)
(1.22827 0.408229 9.25626e-20)
(0.542864 0.330133 1.39212e-19)
(1.04454 0.651761 -5.51927e-19)
(1.22621 0.715604 7.10307e-19)
(1.26517 0.680396 -3.83036e-19)
(1.25809 0.624809 1.04105e-19)
(1.24278 0.571657 -1.30337e-19)
(1.22766 0.525186 1.28831e-19)
(1.21321 0.485281 5.20347e-20)
(1.20022 0.450762 4.35261e-20)
(1.19211 0.417097 -5.60383e-20)
(0.53568 0.378766 -4.14598e-19)
(0.996383 0.704015 5.92776e-19)
(1.15783 0.750264 -2.94756e-20)
(1.19297 0.701995 -1.29684e-19)
(1.1904 0.639149 -1.5214e-19)
(1.18216 0.581916 2.3931e-20)
(1.17416 0.532879 -4.30029e-20)
(1.1665 0.490935 -1.76654e-20)
(1.16003 0.454681 1.51325e-20)
(1.15747 0.420623 2.54272e-20)
(0.513656 0.418818 4.9586e-19)
(0.931841 0.741005 -1.65547e-19)
(1.07802 0.770579 -8.74641e-20)
(1.11349 0.711419 2.08152e-19)
(1.1177 0.642741 -9.0921e-20)
(1.11761 0.582051 -2.19572e-20)
(1.11769 0.530571 -1.04315e-19)
(1.1184 0.48652 -4.73367e-20)
(1.12026 0.449065 -6.20766e-20)
(1.12351 0.416884 2.79055e-20)
(0.478865 0.447878 -3.31905e-19)
(0.854503 0.761098 1.3325e-19)
(0.989851 0.775778 -5.71484e-20)
(1.02882 0.708365 -7.93052e-20)
(1.04109 0.635541 1.46252e-20)
(1.0493 0.571904 2.1918e-19)
(1.05741 0.517208 -6.61842e-20)
(1.06684 0.468897 6.81404e-20)
(1.07701 0.427662 1.02487e-19)
(1.08348 0.398545 2.90831e-19)
(0.433975 0.464176 6.73769e-20)
(0.768226 0.763211 -7.31648e-20)
(0.896579 0.765419 4.1858e-19)
(0.941413 0.69293 -8.13511e-20)
(0.962445 0.618573 4.59138e-19)
(0.978585 0.554105 2.83996e-19)
(0.993628 0.497663 -6.37933e-19)
(1.01006 0.444753 9.46589e-19)
(1.02603 0.392972 -1.9545e-19)
(1.02623 0.349906 3.32214e-19)
(0.381989 0.466579 -8.70141e-20)
(0.676948 0.746758 -1.66975e-19)
(0.801524 0.739125 1.69428e-19)
(0.854048 0.664654 -3.12086e-19)
(0.884596 0.591455 -1.00635e-18)
(0.90892 0.529332 -3.97061e-19)
(0.930357 0.476428 -3.32854e-19)
(0.950643 0.429897 1.62721e-19)
(0.965572 0.389924 1.2863e-18)
(0.962991 0.360732 -2.30421e-19)
(0.326023 0.454611 1.26249e-19)
(0.584492 0.711783 -4.35787e-19)
(0.707793 0.697005 1.02157e-19)
(0.769201 0.623209 -6.99677e-19)
(0.809963 0.552475 1.46688e-18)
(0.84348 0.492413 -1.65234e-19)
(0.872605 0.440594 7.4073e-19)
(0.89843 0.394288 -1.00541e-18)
(0.91723 0.354581 3.09617e-19)
(0.920397 0.328105 4.13334e-20)
(0.269173 0.428415 7.65512e-20)
(0.494542 0.658945 4.8891e-19)
(0.618314 0.639873 -1.53179e-18)
(0.688818 0.569931 6.99102e-19)
(0.739101 0.504604 1.07039e-21)
(0.780707 0.449985 -2.21214e-19)
(0.816482 0.40373 2.65623e-19)
(0.847611 0.363197 -2.52269e-19)
(0.871245 0.328229 -8.32139e-19)
(0.881178 0.30263 -2.00066e-19)
(0.214387 0.38865 3.24734e-19)
(0.410599 0.589268 3.36103e-19)
(0.53618 0.56829 1.33062e-18)
(0.615921 0.504355 -7.08107e-19)
(0.675533 0.445482 1.38712e-18)
(0.72492 0.396326 -2.85776e-19)
(0.766949 0.354791 -2.85054e-19)
(0.80321 0.31891 3.2101e-19)
(0.831857 0.28866 2.03397e-19)
(0.848238 0.266529 6.40339e-19)
(0.1643 0.33652 -3.72027e-19)
(0.335589 0.504509 9.52978e-20)
(0.463509 0.484036 2.79814e-20)
(0.551686 0.428623 7.32674e-19)
(0.619607 0.378339 -1.73294e-18)
(0.675964 0.336642 2.84414e-19)
(0.723654 0.301569 5.84006e-19)
(0.764539 0.27132 -6.80549e-19)
(0.79772 0.245583 2.31196e-19)
(0.820107 0.226056 -9.31825e-19)
(0.121279 0.273635 8.12944e-20)
(0.272294 0.406686 3.75846e-19)
(0.40274 0.388593 1.42232e-19)
(0.498247 0.343403 1.76366e-19)
(0.573201 0.302754 3.16702e-19)
(0.635419 0.269169 8.84657e-19)
(0.687903 0.241082 -1.03396e-18)
(0.73276 0.217059 -5.53303e-19)
(0.769898 0.196634 8.99389e-20)
(0.797492 0.180769 6.07699e-19)
(0.0872484 0.201981 -4.93046e-19)
(0.222842 0.298315 -4.91056e-20)
(0.35555 0.284238 -3.94342e-19)
(0.4569 0.250879 5.19396e-20)
(0.53738 0.221077 -3.00436e-19)
(0.604169 0.196513 -3.24937e-19)
(0.660362 0.176014 -4.58069e-19)
(0.7083 0.158527 1.18225e-18)
(0.748604 0.143621 1.94603e-19)
(0.780421 0.131848 -2.60165e-19)
(0.063708 0.123845 2.65741e-19)
(0.18892 0.182164 3.01243e-19)
(0.323308 0.173241 1.11254e-19)
(0.428712 0.152774 -5.67872e-19)
(0.512995 0.134571 -2.48936e-19)
(0.582929 0.119598 -5.13849e-20)
(0.641668 0.107132 9.4821e-20)
(0.691726 0.0965252 7.29773e-20)
(0.734245 0.0874697 -5.36631e-19)
(0.769027 0.080239 2.69077e-19)
(0.05168 0.0417323 -1.40193e-19)
(0.171672 0.0612609 -1.34951e-19)
(0.306955 0.0582074 1.01822e-19)
(0.414434 0.0513104 8.48325e-20)
(0.500654 0.0451886 8.22791e-20)
(0.572186 0.0401577 1.18032e-19)
(0.632219 0.0359738 -6.96022e-21)
(0.683361 0.0324182 -1.4164e-19)
(0.727028 0.0293811 1.28469e-19)
(0.763342 0.0269448 -1.68385e-19)
(0.0516796 -0.0417214 -1.41849e-19)
(0.171672 -0.0612437 -1.29463e-19)
(0.306954 -0.0581898 1.12198e-19)
(0.414434 -0.051294 2.05427e-19)
(0.500653 -0.0451736 1.28023e-19)
(0.572186 -0.0401439 -1.60623e-19)
(0.632219 -0.0359612 -8.19499e-20)
(0.68336 -0.0324066 3.54033e-20)
(0.727027 -0.0293704 7.501e-20)
(0.763341 -0.0269351 -3.88067e-20)
(0.0637068 -0.123834 3.37334e-19)
(0.188918 -0.182147 -3.59979e-19)
(0.323306 -0.173223 -2.89208e-20)
(0.42871 -0.152758 1.774e-19)
(0.512993 -0.134556 -7.55356e-19)
(0.582928 -0.119584 3.05727e-19)
(0.641667 -0.10712 2.98542e-19)
(0.691725 -0.0965137 -3.38844e-19)
(0.734244 -0.0874591 3.10708e-19)
(0.769026 -0.0802293 -1.2013e-19)
(0.0872465 -0.201971 -5.64689e-20)
(0.222839 -0.298298 -1.9344e-21)
(0.355547 -0.284221 -9.15052e-19)
(0.456897 -0.250862 -2.70067e-19)
(0.537377 -0.221062 -2.25928e-20)
(0.604167 -0.1965 -3.98915e-19)
(0.660359 -0.176002 7.10462e-19)
(0.708298 -0.158515 -2.5853e-20)
(0.748602 -0.143611 3.76116e-19)
(0.78042 -0.131839 -2.85233e-19)
(0.121277 -0.273625 9.45146e-20)
(0.27229 -0.406669 -3.75499e-19)
(0.402735 -0.388576 1.09853e-18)
(0.498243 -0.343387 1.48246e-19)
(0.573198 -0.30274 6.78914e-19)
(0.635416 -0.269156 -6.26607e-19)
(0.6879 -0.24107 6.29283e-19)
(0.732757 -0.217048 -4.38205e-19)
(0.769895 -0.196624 -1.86761e-19)
(0.79749 -0.18076 1.35246e-19)
(0.164297 -0.33651 8.13204e-19)
(0.335583 -0.504493 1.82794e-20)
(0.463503 -0.484019 -1.13392e-18)
(0.551681 -0.428607 -3.10359e-19)
(0.619602 -0.378324 9.8564e-19)
(0.675959 -0.336628 -5.48476e-19)
(0.72365 -0.301557 -6.00806e-19)
(0.764536 -0.271309 5.22735e-19)
(0.797717 -0.245573 -3.41435e-19)
(0.820105 -0.226047 -6.45659e-20)
(0.214383 -0.388641 -1.24056e-19)
(0.410593 -0.589253 -8.0821e-21)
(0.536173 -0.568274 1.19254e-18)
(0.615915 -0.50434 6.58936e-19)
(0.675527 -0.445468 -7.37091e-19)
(0.724915 -0.396313 8.56028e-19)
(0.766944 -0.354779 -8.75292e-19)
(0.803205 -0.3189 8.76902e-20)
(0.831853 -0.28865 2.44432e-19)
(0.848235 -0.26652 4.87386e-19)
(0.269169 -0.428406 1.0896e-19)
(0.494535 -0.65893 1.53152e-19)
(0.618306 -0.639858 1.75231e-19)
(0.68881 -0.569917 -5.87359e-19)
(0.739094 -0.504591 -1.00691e-18)
(0.780701 -0.449972 2.0546e-19)
(0.816476 -0.403719 5.67222e-19)
(0.847606 -0.363186 -1.56193e-19)
(0.871241 -0.328219 8.97233e-19)
(0.881174 -0.302621 -7.62822e-19)
(0.326017 -0.454602 -5.8745e-19)
(0.584484 -0.711769 1.46111e-19)
(0.707784 -0.69699 -6.04922e-19)
(0.769193 -0.623195 9.5533e-19)
(0.809955 -0.552463 4.68888e-19)
(0.843473 -0.492401 6.27072e-19)
(0.872598 -0.440584 -1.36192e-19)
(0.898424 -0.394278 5.26949e-19)
(0.917224 -0.354572 -1.0808e-18)
(0.920392 -0.328097 -2.45357e-19)
(0.381984 -0.466571 1.14634e-19)
(0.676939 -0.746744 -2.75995e-19)
(0.801514 -0.739111 -5.1192e-19)
(0.854039 -0.66464 -2.67561e-19)
(0.884587 -0.591443 -6.94407e-19)
(0.908912 -0.529321 -7.29456e-20)
(0.930349 -0.476418 5.83028e-20)
(0.950637 -0.429888 -2.37033e-19)
(0.965566 -0.389916 -2.64872e-19)
(0.962986 -0.360724 5.99049e-19)
(0.433969 -0.464168 4.46134e-20)
(0.768216 -0.763198 1.04106e-19)
(0.896568 -0.765405 3.95519e-19)
(0.941402 -0.692918 4.93296e-20)
(0.962435 -0.618561 2.81326e-19)
(0.978576 -0.554094 -3.57387e-19)
(0.99362 -0.497654 1.06294e-18)
(1.01006 -0.444744 -4.52218e-19)
(1.02602 -0.392964 -2.19212e-19)
(1.02622 -0.349899 -5.68296e-19)
(0.478859 -0.447871 -1.09262e-20)
(0.854493 -0.761086 -1.09788e-19)
(0.989839 -0.775766 2.00515e-20)
(1.02881 -0.708354 3.97635e-20)
(1.04108 -0.63553 -5.36833e-20)
(1.04929 -0.571894 -1.65257e-19)
(1.0574 -0.517199 2.08576e-19)
(1.06683 -0.468889 -7.72896e-20)
(1.077 -0.427655 9.77002e-20)
(1.08347 -0.398538 -1.69102e-19)
(0.51365 -0.418812 1.62413e-19)
(0.93183 -0.740995 -3.36295e-19)
(1.07801 -0.770567 2.38105e-19)
(1.11348 -0.711408 -9.65689e-21)
(1.11769 -0.642731 -5.41897e-20)
(1.1176 -0.582042 2.03001e-20)
(1.11768 -0.530562 -4.87147e-21)
(1.11839 -0.486512 -1.29594e-19)
(1.12025 -0.449058 -6.96146e-20)
(1.1235 -0.416878 -1.32567e-19)
(0.535674 -0.378761 -2.29355e-19)
(0.996372 -0.704006 6.02535e-19)
(1.15781 -0.750253 -3.05385e-19)
(1.19295 -0.701985 -1.48733e-19)
(1.19039 -0.639139 1.6683e-19)
(1.18215 -0.581907 -3.81365e-20)
(1.17415 -0.532871 1.73092e-20)
(1.16649 -0.490928 3.8441e-20)
(1.16003 -0.454674 -4.23294e-20)
(1.15747 -0.420616 2.02581e-21)
(0.542858 -0.33013 -3.87329e-19)
(1.04453 -0.651753 -2.38305e-19)
(1.22619 -0.715594 -3.91045e-19)
(1.26516 -0.680386 4.29953e-19)
(1.25808 -0.6248 -1.71548e-20)
(1.24277 -0.571649 1.21377e-19)
(1.22765 -0.525178 1.46495e-19)
(1.2132 -0.485274 -4.80645e-20)
(1.20021 -0.450755 -4.91667e-20)
(1.1921 -0.417091 6.39505e-20)
(0.533984 -0.275932 -2.26596e-19)
(1.07312 -0.586525 -2.33183e-19)
(1.28019 -0.667928 2.80396e-19)
(1.32812 -0.647651 -3.98584e-19)
(1.31977 -0.600894 7.47468e-20)
(1.29923 -0.552895 3.38708e-20)
(1.27838 -0.509785 4.77124e-20)
(1.2587 -0.472497 -3.05793e-20)
(1.2409 -0.4403 -4.05923e-20)
(1.22826 -0.408223 -1.77883e-19)
(0.508888 -0.219606 9.22578e-19)
(1.07941 -0.511234 -5.41766e-19)
(1.31691 -0.609081 1.20847e-20)
(1.37974 -0.605201 -5.44982e-19)
(1.37425 -0.568833 -1.29267e-19)
(1.35086 -0.527118 1.13163e-19)
(1.32574 -0.488145 7.0078e-20)
(1.30203 -0.453931 -2.29729e-19)
(1.28056 -0.424396 1.13629e-19)
(1.26423 -0.394657 -1.45077e-19)
(0.468624 -0.164723 4.20224e-19)
(1.06132 -0.429274 -3.08517e-19)
(1.33343 -0.541198 1.04852e-18)
(1.41767 -0.554537 5.98223e-20)
(1.41999 -0.529898 1.87494e-19)
(1.39669 -0.495469 6.07501e-19)
(1.36893 -0.461263 -1.1904e-19)
(1.34223 -0.430463 3.12145e-20)
(1.31792 -0.403843 -9.35172e-21)
(1.29857 -0.377064 -2.26921e-20)
(0.415546 -0.114632 2.99285e-19)
(1.01755 -0.344415 5.81916e-19)
(1.32689 -0.466682 -5.09575e-19)
(1.43931 -0.497186 -1.20265e-19)
(1.45524 -0.485271 -1.22577e-19)
(1.43569 -0.458994 2.345e-19)
(1.40728 -0.430092 -1.02134e-19)
(1.37871 -0.402973 2.33474e-19)
(1.35233 -0.379379 5.63489e-20)
(1.33046 -0.355942 -7.83228e-20)
(0.353232 -0.072099 -3.22915e-19)
(0.948009 -0.260732 2.32847e-19)
(1.29468 -0.388218 -4.48631e-19)
(1.44177 -0.434732 1.66552e-19)
(1.47794 -0.436073 -1.51553e-19)
(1.4667 -0.418686 -1.63137e-19)
(1.44023 -0.395588 -1.15524e-19)
(1.41114 -0.372381 1.22417e-19)
(1.3835 -0.351806 -2.05046e-19)
(1.35971 -0.331869 1.02819e-19)
(0.286165 -0.0389635 -1.14469e-19)
(0.854207 -0.182515 -1.85029e-19)
(1.23468 -0.308804 8.2126e-20)
(1.42186 -0.368853 7.48542e-21)
(1.48547 -0.383353 5.26991e-20)
(1.48818 -0.375408 6.65356e-20)
(1.46706 -0.358575 5.12485e-20)
(1.43924 -0.339491 -6.78857e-20)
(1.4113 -0.321817 5.24977e-20)
(1.38622 -0.305271 -6.49298e-20)
(0.219134 -0.015908 -6.61093e-20)
(0.739882 -0.114062 -2.15087e-20)
(1.14573 -0.231756 7.64082e-20)
(1.37615 -0.301377 -3.4113e-20)
(1.47449 -0.328088 8.02159e-20)
(1.49789 -0.329836 -9.51129e-20)
(1.48667 -0.319687 2.42247e-20)
(1.46263 -0.304977 1.91725e-20)
(1.43565 -0.290124 -5.92582e-21)
(1.41003 -0.276709 2.2552e-20)
(0.156481 -0.00242355 -7.13153e-20)
(0.611448 -0.059231 -2.72535e-19)
(1.02837 -0.160667 -2.0891e-20)
(1.30127 -0.234381 7.26407e-21)
(1.44072 -0.27126 -3.02221e-19)
(1.49245 -0.282464 3.0825e-20)
(1.49705 -0.279291 -3.0863e-20)
(1.48042 -0.269247 -7.46546e-20)
(1.45628 -0.257169 1.53081e-19)
(1.4312 -0.246543 -2.18037e-19)
(0.10148 0.00297339 -3.71029e-20)
(0.477875 -0.0206713 5.72537e-19)
(0.88588 -0.0993048 7.71537e-20)
(1.19463 -0.170363 -4.63878e-19)
(1.37909 -0.214032 -5.85002e-20)
(1.46701 -0.233692 -4.46657e-19)
(1.49483 -0.237527 3.233e-19)
(1.4908 -0.232454 -1.18295e-19)
(1.47252 -0.22334 2.18972e-19)
(1.44944 -0.215157 -1.42341e-19)
(0.056043 0.00234206 -2.32287e-19)
(0.349312 0.00108075 2.20108e-19)
(0.725518 -0.0513129 -1.4739e-19)
(1.05591 -0.112436 9.98509e-19)
(1.28441 -0.158037 4.92112e-19)
(1.4151 -0.184043 -1.16118e-19)
(1.47458 -0.194357 4.39192e-19)
(1.49024 -0.194417 -2.63458e-19)
(1.48241 -0.188454 -6.85236e-20)
(1.46437 -0.182589 4.42417e-19)
(0.0207801 -0.00212085 -4.27854e-19)
(0.234658 0.00800427 5.19638e-19)
(0.558834 -0.0194383 -9.64585e-19)
(0.889228 -0.064379 1.56311e-19)
(1.15302 -0.105791 3.72631e-19)
(1.32917 -0.13456 -4.48017e-19)
(1.42847 -0.149876 -7.28775e-19)
(1.47257 -0.154752 3.72844e-19)
(1.48221 -0.152276 -4.30905e-19)
(1.47338 -0.14857 5.29434e-19)
(-0.00469741 -0.00841395 -1.04401e-19)
(0.139549 0.00396888 -5.33401e-19)
(0.399706 -0.00430676 2.48726e-19)
(0.705186 -0.0301218 5.99877e-19)
(0.986053 -0.0611097 -3.08585e-19)
(1.20264 -0.0874698 -2.8829e-19)
(1.34668 -0.104784 -4.59936e-19)
(1.42842 -0.113192 -1.78086e-19)
(1.46429 -0.113778 -2.2565e-20)
(1.47318 -0.112239 5.16096e-19)
(-0.0214153 -0.0149275 1.71885e-19)
(0.0659384 -0.00664806 -7.13121e-19)
(0.260264 -0.00381534 1.17771e-18)
(0.520154 -0.0123099 -6.20507e-19)
(0.793188 -0.0288171 3.93134e-19)
(1.03455 -0.0469475 -4.64719e-19)
(1.22015 -0.0614378 4.96946e-19)
(1.34555 -0.0703207 4.07106e-19)
(1.41761 -0.0727314 7.60164e-19)
(1.45357 -0.0724291 -9.61796e-19)
(-0.0307781 -0.0206219 -5.30983e-19)
(0.0129624 -0.020385 9.09586e-19)
(0.147771 -0.0142948 1.60031e-20)
(0.351678 -0.0110833 -2.94377e-19)
(0.593103 -0.0131391 -1.45578e-19)
(0.835112 -0.0188295 1.1458e-19)
(1.04746 -0.0248624 -8.12316e-19)
(1.21337 -0.029048 5.59722e-19)
(1.3266 -0.0293709 -7.06795e-19)
(1.40362 -0.0272064 -2.14527e-19)
(-0.0344742 -0.0252755 9.30989e-19)
(-0.0218868 -0.0356461 -2.40958e-19)
(0.0644979 -0.0327044 -4.42663e-19)
(0.213222 -0.0246509 1.14808e-18)
(0.408398 -0.0160072 -1.09139e-18)
(0.626691 -0.00860936 5.93789e-19)
(0.841863 -0.00205443 6.10646e-19)
(1.03336 0.00393335 1.54495e-19)
(1.18139 0.0111539 1.54787e-19)
(1.30311 0.0206774 -1.35982e-19)
(-0.0344572 -0.0296483 -9.07296e-19)
(-0.0420018 -0.0528002 7.26525e-19)
(0.00913974 -0.0577607 -6.10866e-19)
(0.111729 -0.0507651 7.44148e-19)
(0.258202 -0.0366438 -2.10646e-19)
(0.436955 -0.018831 -7.39208e-19)
(0.63127 0.000827 2.04687e-19)
(0.82371 0.0215877 -3.0497e-19)
(0.993183 0.0398736 -3.31704e-19)
(1.14217 0.0734792 -7.2118e-19)
(-0.0327951 -0.0352391 -1.19011e-18)
(-0.0514381 -0.0731985 7.80826e-19)
(-0.0225734 -0.088935 -1.46664e-18)
(0.0469364 -0.0866925 2.5165e-19)
(0.152145 -0.0714436 -9.54107e-19)
(0.288016 -0.0473508 -5.72829e-19)
(0.446798 -0.0173388 1.34413e-18)
(0.619141 0.0159903 -1.83083e-18)
(0.7841 0.0514809 3.53916e-19)
(0.973237 0.0803013 -4.58357e-19)
(-0.031227 -0.0435019 5.93447e-19)
(-0.0546429 -0.0974755 2.22073e-19)
(-0.0378808 -0.124347 -7.67181e-20)
(0.0108844 -0.127682 5.43775e-19)
(0.0865255 -0.113309 1.57561e-18)
(0.18605 -0.0862691 5.49586e-19)
(0.306711 -0.0501247 5.62008e-19)
(0.445538 -0.0081878 -1.92717e-19)
(0.586588 0.0398186 -1.86197e-18)
(0.768069 0.0787111 3.4618e-19)
(-0.0305987 -0.0548218 -1.80235e-19)
(-0.0555435 -0.124045 4.76277e-19)
(-0.0455594 -0.15945 -1.19556e-19)
(-0.00999111 -0.166285 7.98401e-19)
(0.0456152 -0.152089 -1.77049e-18)
(0.118295 -0.123085 1.65752e-19)
(0.206635 -0.0834148 -8.46835e-19)
(0.309922 -0.0360911 1.26067e-18)
(0.420694 0.0181571 -3.55727e-19)
(0.565497 0.0680848 -3.71096e-20)
(-0.0306621 -0.0678008 -1.21404e-19)
(-0.0565413 -0.148641 -5.69321e-19)
(-0.0529971 -0.187521 1.38932e-18)
(-0.0290314 -0.193962 -6.89023e-19)
(0.0104455 -0.177688 3.31866e-20)
(0.0625992 -0.145983 2.08594e-19)
(0.126005 -0.10339 -2.24154e-19)
(0.200108 -0.0526859 2.57261e-19)
(0.283411 0.00402607 9.0066e-19)
(0.386804 0.0579982 1.68114e-19)
(-0.0305013 -0.0792885 -2.85564e-19)
(-0.0584105 -0.165257 -2.61375e-19)
(-0.064189 -0.201697 -1.09442e-18)
(-0.0541298 -0.203962 5.70823e-19)
(-0.0313957 -0.183758 -1.15611e-18)
(0.0019379 -0.148858 2.49323e-19)
(0.0446055 -0.103882 2.81574e-19)
(0.0960467 -0.0517899 -3.1491e-19)
(0.15655 0.00393675 -1.98748e-19)
(0.227116 0.0542457 -6.35424e-19)
(-0.0292664 -0.0852721 2.26289e-19)
(-0.0609279 -0.168232 -4.22975e-20)
(-0.0795783 -0.197531 -3.23986e-21)
(-0.0862877 -0.193826 -5.30812e-19)
(-0.0818763 -0.169831 1.28565e-18)
(-0.067417 -0.133069 -1.9273e-19)
(-0.0436707 -0.0879915 -5.00197e-19)
(-0.0110656 -0.0380045 5.98365e-19)
(0.0301153 0.0122047 -2.07383e-19)
(0.0780047 0.0534885 8.37651e-19)
(-0.0267119 -0.0823152 -4.18134e-20)
(-0.063467 -0.154382 -2.03448e-19)
(-0.0969397 -0.17453 -7.57417e-20)
(-0.121192 -0.165896 -9.16847e-20)
(-0.134691 -0.140707 -1.9463e-19)
(-0.137683 -0.10559 -6.21921e-19)
(-0.130461 -0.064632 7.65023e-19)
(-0.113632 -0.0214828 4.44773e-19)
(-0.0885515 0.018901 -8.07997e-20)
(-0.0558058 0.0490899 -5.07288e-19)
(-0.0233256 -0.0688625 2.3519e-19)
(-0.0654105 -0.123947 3.5387e-20)
(-0.112894 -0.135689 2.18218e-19)
(-0.152478 -0.125373 -2.68663e-20)
(-0.180693 -0.103144 1.87889e-19)
(-0.197326 -0.0742023 2.09108e-19)
(-0.202573 -0.0419236 3.10731e-19)
(-0.197682 -0.0095247 -8.73017e-19)
(-0.184748 0.0189417 -1.59532e-19)
(-0.161956 0.0387203 2.12038e-19)
(-0.0201105 -0.045779 -1.17096e-19)
(-0.0664995 -0.0800744 -1.37088e-19)
(-0.12461 -0.0856651 -6.64253e-20)
(-0.175087 -0.0775178 2.9701e-19)
(-0.213148 -0.0623275 1.4159e-19)
(-0.238454 -0.0434161 2.73907e-20)
(-0.251429 -0.0230099 -6.13284e-20)
(-0.254111 -0.00325623 -4.47677e-20)
(-0.248904 0.0133327 3.92364e-19)
(-0.23207 0.0243622 -2.00078e-19)
(-0.0181538 -0.0160367 5.9166e-20)
(-0.0669069 -0.0276429 6.08179e-20)
(-0.130661 -0.0292205 -4.97268e-20)
(-0.186659 -0.0261514 -4.38314e-20)
(-0.229477 -0.0207702 -4.3955e-20)
(-0.25879 -0.0142182 -6.98781e-20)
(-0.275266 -0.00726954 1.45736e-21)
(-0.281451 -0.000669714 9.35946e-20)
(-0.279818 0.00474635 -9.22169e-20)
(-0.26565 0.00827893 1.24168e-19)
(0.0595029 -0.0263916 3.47748e-21)
(0.454727 -0.0177821 -1.66171e-21)
(0.764848 -0.00896402 -2.93936e-22)
(0.90388 -0.0039773 1.53683e-22)
(0.961262 -0.00155907 2.59947e-23)
(0.982578 -0.00061211 -2.28717e-23)
(0.99138 -0.000263575 -3.1594e-23)
(0.995643 -0.000120438 1.0239e-23)
(0.997547 -6.57149e-05 -7.95612e-25)
(0.999006 -2.93267e-05 7.50556e-24)
(0.117304 -0.078074 9.31925e-21)
(0.469528 -0.0523623 3.69769e-21)
(0.769334 -0.0266768 2.43279e-21)
(0.905272 -0.0118807 -2.54773e-21)
(0.961678 -0.00466772 -1.26182e-22)
(0.982695 -0.00183531 1.07765e-22)
(0.991412 -0.00079169 -1.23148e-22)
(0.995654 -0.000364264 -3.08213e-23)
(0.997552 -0.000197962 -6.31925e-23)
(0.999008 -8.73549e-05 -6.48642e-24)
(0.231357 -0.127288 3.7707e-21)
(0.501974 -0.084107 -2.26918e-21)
(0.778982 -0.0436522 -2.19122e-21)
(0.90822 -0.01958 2.23224e-21)
(0.962546 -0.00771903 -1.4101e-22)
(0.982936 -0.00304216 9.45194e-23)
(0.99148 -0.00131528 4.53372e-23)
(0.995676 -0.000606825 -1.09366e-23)
(0.997563 -0.000329714 4.3679e-23)
(0.999012 -0.000145193 -8.80635e-24)
(0.385615 -0.173022 -1.43499e-20)
(0.553694 -0.11151 -8.7644e-21)
(0.794304 -0.0592888 1.40844e-21)
(0.912867 -0.0269004 -1.87295e-21)
(0.963907 -0.010665 2.09297e-21)
(0.983314 -0.00421936 -6.16228e-22)
(0.991585 -0.00183076 3.64184e-23)
(0.995711 -0.000847132 -4.99973e-23)
(0.997579 -0.000460604 5.12668e-23)
(0.999019 -0.000202706 3.76225e-24)
(0.553411 -0.213237 3.13658e-20)
(0.621377 -0.1337 -6.05355e-21)
(0.814787 -0.0730187 -1.93747e-21)
(0.919134 -0.0336607 4.11697e-21)
(0.965763 -0.0134548 -1.57331e-21)
(0.983837 -0.0053526 -4.71737e-22)
(0.991733 -0.0023341 -3.72633e-22)
(0.99576 -0.00108402 -8.29631e-23)
(0.997601 -0.000590193 -1.21736e-22)
(0.999028 -0.000259737 -1.64827e-23)
(0.714348 -0.24506 -1.01595e-20)
(0.697645 -0.149974 2.03132e-20)
(0.838784 -0.0843415 5.26305e-22)
(0.926671 -0.0397005 -4.74578e-21)
(0.968063 -0.0160455 9.77972e-22)
(0.984505 -0.00642937 6.01397e-22)
(0.991928 -0.00282157 3.9603e-22)
(0.995825 -0.00131638 9.86585e-23)
(0.997631 -0.000718047 5.19895e-23)
(0.999039 -0.000316124 2.40782e-23)
(0.860381 -0.267895 -1.07659e-20)
(0.774891 -0.15998 -1.14747e-20)
(0.86413 -0.0930278 2.9018e-21)
(0.934956 -0.04494 2.15225e-21)
(0.970718 -0.0184146 -9.48017e-22)
(0.985314 -0.00744136 2.73698e-22)
(0.992172 -0.00329021 -3.72574e-22)
(0.995908 -0.0015433 -1.17697e-22)
(0.997668 -0.000843819 1.9372e-23)
(0.999053 -0.000371727 8.31071e-24)
(0.990421 -0.287584 3.50382e-20)
(0.847915 -0.16744 6.35726e-22)
(0.888953 -0.100208 -7.33531e-21)
(0.943478 -0.0495411 5.08256e-21)
(0.973629 -0.020557 -1.65775e-21)
(0.986253 -0.00837491 1.13479e-21)
(0.992468 -0.00373353 5.53352e-22)
(0.996011 -0.00176227 1.71224e-22)
(0.997713 -0.000966542 1.38926e-22)
(0.99907 -0.00042627 1.04381e-23)
(1.10394 -0.310023 -5.04899e-20)