1.45 	0 	0 	-0.13004
2.35 	0 	0 	0.027928
