1.45 	0 	0 	-0.271599
2.35 	0 	0 	0.0217036
