1.45 	0 	0 	-0.0369244 	-0.0168298 	4.31304e-21
2.35 	0 	0 	0.234595 	-0.0186408 	-1.1073e-21
