1.45 	0 	0 	-0.315064
2.35 	0 	0 	-0.00329384
