1.45 	0 	0 	-0.336463
2.35 	0 	0 	-0.0400068
