1.45 	0 	0 	-0.248073
2.35 	0 	0 	0.0261492
