1.45 	0 	0 	0.0595029 	-0.0263916 	3.47748e-21
2.35 	0 	0 	0.454727 	-0.0177821 	-1.66171e-21
