1.45 	0 	0 	0.458101 	-0.0371173 	1.36968e-22
2.35 	0 	0 	0.81705 	-0.00810553 	-6.47433e-22
