1.45 	0 	0 	0.05308
2.35 	0 	0 	0.0299752
