1.45 	0 	0 	-0.324783
2.35 	0 	0 	-0.0160615
