1.45 	0 	0 	0.316978 	-0.0380605 	1.12036e-21
2.35 	0 	0 	0.740464 	-0.0109267 	-8.66023e-22
