1.45 	0 	0 	0.0576561
2.35 	0 	0 	0.00652245
