1.45 	0 	0 	0.0628104 	-0.0266683 	3.44685e-21
2.35 	0 	0 	0.46064 	-0.017706 	-1.66023e-21
