1.45 	0 	0 	-0.0553785 	-0.0147123 	4.45575e-21
2.35 	0 	0 	0.181428 	-0.0183014 	-7.94443e-22
