/*--------------------------------*- C++ -*----------------------------------*\
  =========                 |
  \\      /  F ield         | OpenFOAM: The Open Source CFD Toolbox
   \\    /   O peration     | Website:  https://openfoam.org
    \\  /    A nd           | Version:  6.0
     \\/     M anipulation  |
\*---------------------------------------------------------------------------*/
FoamFile
{
    version     2.0;
    format      ascii;
    class       volScalarField;
    location    "1";
    object      p;
}
// * * * * * * * * * * * * * * * * * * * * * * * * * * * * * * * * * * * * * //

dimensions      [0 2 -2 0 0 0 0];

internalField   nonuniform List<scalar> 
2000
(
-0.291187
-0.299672
-0.295807
-0.279867
-0.251695
-0.213844
-0.171434
-0.129941
-0.0934921
-0.065648
-0.305294
-0.3132
-0.309993
-0.295372
-0.268541
-0.231567
-0.189326
-0.147292
-0.109691
-0.0798656
-0.331347
-0.338059
-0.335885
-0.323549
-0.299092
-0.263685
-0.221761
-0.178799
-0.139288
-0.106188
-0.365759
-0.370641
-0.369458
-0.359815
-0.338269
-0.304812
-0.263303
-0.219249
-0.177588
-0.140885
-0.404609
-0.407088
-0.40648
-0.399383
-0.380749
-0.349253
-0.308147
-0.263018
-0.219347
-0.179502
-0.444651
-0.444324
-0.443683
-0.438555
-0.422331
-0.392393
-0.351486
-0.305376
-0.260027
-0.217923
-0.483894
-0.480604
-0.479329
-0.475318
-0.460528
-0.431285
-0.390122
-0.343153
-0.296582
-0.253282
-0.521688
-0.515524
-0.513141
-0.509204
-0.494375
-0.464386
-0.422089
-0.374219
-0.326985
-0.283777
-0.558422
-0.549648
-0.545806
-0.5407
-0.523854
-0.491024
-0.445932
-0.396158
-0.348125
-0.306388
-0.595059
-0.583979
-0.57832
-0.570571
-0.549427
-0.511438
-0.461432
-0.407333
-0.355757
-0.313959
-0.632648
-0.619467
-0.611455
-0.599336
-0.571683
-0.526855
-0.47097
-0.411549
-0.353459
-0.299459
-0.671959
-0.656674
-0.645469
-0.627043
-0.591031
-0.538583
-0.477259
-0.414387
-0.354262
-0.297718
-0.713269
-0.695629
-0.680033
-0.653316
-0.607671
-0.547596
-0.481724
-0.41676
-0.356013
-0.299932
-0.756252
-0.735779
-0.714257
-0.677432
-0.621544
-0.554417
-0.485131
-0.419424
-0.359695
-0.305833
-0.799941
-0.776014
-0.746768
-0.698403
-0.632293
-0.558979
-0.487216
-0.421442
-0.36295
-0.310996
-0.842734
-0.814683
-0.775837
-0.71506
-0.639298
-0.560828
-0.487403
-0.422003
-0.364856
-0.314826
-0.882478
-0.849657
-0.799539
-0.726148
-0.641754
-0.55923
-0.484818
-0.420017
-0.3641
-0.315684
-0.916659
-0.878458
-0.815926
-0.730437
-0.638787
-0.553369
-0.478619
-0.414661
-0.359999
-0.313221
-0.942634
-0.898505
-0.823178
-0.726805
-0.629541
-0.542419
-0.467969
-0.405111
-0.351772
-0.30666
-0.957852
-0.907372
-0.819727
-0.71429
-0.613244
-0.525637
-0.452161
-0.390748
-0.338933
-0.295686
-0.960014
-0.903004
-0.804337
-0.692118
-0.58922
-0.502367
-0.430594
-0.371054
-0.321066
-0.279969
-0.947178
-0.883839
-0.776135
-0.659703
-0.556917
-0.472068
-0.402792
-0.345669
-0.297966
-0.259463
-0.917845
-0.848864
-0.734632
-0.616685
-0.515936
-0.434334
-0.368399
-0.314326
-0.26948
-0.234098
-0.871031
-0.797626
-0.679743
-0.562995
-0.466132
-0.388993
-0.327269
-0.276943
-0.235599
-0.203864
-0.80634
-0.730233
-0.611798
-0.498901
-0.407697
-0.336212
-0.279574
-0.233719
-0.196554
-0.168984
-0.724033
-0.647336
-0.531502
-0.424981
-0.341144
-0.276519
-0.225893
-0.185315
-0.15312
-0.130397
-0.625093
-0.550118
-0.439878
-0.341984
-0.26707
-0.210525
-0.166995
-0.132813
-0.106794
-0.0899718
-0.511273
-0.440325
-0.338291
-0.250768
-0.185887
-0.13834
-0.103004
-0.0768056
-0.0588956
-0.0493241
-0.385097
-0.320331
-0.228649
-0.152623
-0.0981197
-0.0595718
-0.0326177
-0.0153649
-0.00714439
-0.00556697
-0.249756
-0.193095
-0.113543
-0.049794
-0.00557193
0.0248088
0.0448058
0.055081
0.0567513
0.0545183
-0.108919
-0.061961
0.00402293
0.0547235
0.0883037
0.110503
0.124338
0.130469
0.133079
0.148719
0.0334463
0.0695685
0.121079
0.158235
0.180531
0.193222
0.198942
0.199797
0.202919
0.219501
0.173218
0.197889
0.234636
0.258366
0.269662
0.273321
0.271656
0.26678
0.264685
0.27345
0.306308
0.319431
0.341604
0.352215
0.352721
0.34757
0.338919
0.328662
0.321367
0.322744
0.428812
0.430871
0.439355
0.437806
0.428328
0.414935
0.399472
0.383511
0.370729
0.365577
0.537075
0.529033
0.525211
0.512842
0.49454
0.473924
0.452545
0.431605
0.413855
0.402583
0.627887
0.611174
0.596908
0.575411
0.549656
0.522918
0.496521
0.471372
0.449394
0.432904
0.698515
0.674947
0.652503
0.623903
0.592362
0.560879
0.530595
0.502153
0.476782
0.456092
0.746825
0.718516
0.690448
0.65698
0.621476
0.586748
0.553813
0.523116
0.49538
0.471759
0.771354
0.740622
0.709693
0.673753
0.636238
0.599863
0.565582
0.533735
0.504779
0.479655
0.771354
0.740622
0.709693
0.673753
0.636238
0.599863
0.565583
0.533735
0.50478
0.479655
0.746825
0.718516
0.690449
0.656981
0.621477
0.586749
0.553814
0.523117
0.495382
0.47176
0.698515
0.674948
0.652503
0.623904
0.592363
0.560881
0.530597
0.502155
0.476785
0.456095
0.627888
0.611175
0.596909
0.575413
0.549658
0.52292
0.496524
0.471375
0.449397
0.432907
0.537077
0.529035
0.525213
0.512845
0.494542
0.473928
0.452549
0.431609
0.413859
0.402587
0.428815
0.430874
0.439359
0.43781
0.428332
0.414939
0.399477
0.383516
0.370734
0.365583
0.306312
0.319435
0.341608
0.35222
0.352727
0.347576
0.338925
0.328668
0.321374
0.322751
0.173224
0.197895
0.234642
0.258373
0.269669
0.273328
0.271663
0.266787
0.264693
0.273458
0.0334548
0.0695766
0.121087
0.158243
0.180539
0.193229
0.19895
0.199805
0.202927
0.21951
-0.108908
-0.0619507
0.00403286
0.0547331
0.0883131
0.110512
0.124347
0.130478
0.133088
0.148728
-0.249742
-0.193083
-0.11353
-0.0497823
-0.00556055
0.0248198
0.0448167
0.0550921
0.056763
0.0545304
-0.385082
-0.320316
-0.228634
-0.152609
-0.0981061
-0.0595587
-0.0326049
-0.0153521
-0.00713146
-0.00555375
-0.511255
-0.440308
-0.338274
-0.250751
-0.185871
-0.138325
-0.102989
-0.0767916
-0.0588819
-0.0493105
-0.625072
-0.550098
-0.439858
-0.341965
-0.267052
-0.210507
-0.166978
-0.132798
-0.106779
-0.0899577
-0.72401
-0.647314
-0.53148
-0.42496
-0.341123
-0.2765
-0.225874
-0.185298
-0.153104
-0.130382
-0.806315
-0.730209
-0.611774
-0.498877
-0.407674
-0.33619
-0.279553
-0.2337
-0.196537
-0.168968
-0.871003
-0.797599
-0.679717
-0.562969
-0.466107
-0.388969
-0.327247
-0.276922
-0.23558
-0.203847
-0.917814
-0.848834
-0.734603
-0.616657
-0.515908
-0.434307
-0.368375
-0.314304
-0.269459
-0.23408
-0.947144
-0.883806
-0.776103
-0.659672
-0.556887
-0.472039
-0.402766
-0.345646
-0.297945
-0.259444
-0.959976
-0.902967
-0.804302
-0.692084
-0.589189
-0.502337
-0.430567
-0.37103
-0.321043
-0.279949
-0.95781
-0.907332
-0.819689
-0.714254
-0.61321
-0.525606
-0.452133
-0.390723
-0.33891
-0.295666
-0.942589
-0.898461
-0.823135
-0.726766
-0.629506
-0.542387
-0.46794
-0.405086
-0.351749
-0.30664
-0.916611
-0.87841
-0.81588
-0.730395
-0.638749
-0.553336
-0.47859
-0.414636
-0.359976
-0.3132
-0.882427
-0.849605
-0.79949
-0.726104
-0.641714
-0.559195
-0.484789
-0.419991
-0.364077
-0.315664
-0.842681
-0.81463
-0.775786
-0.715013
-0.639256
-0.560792
-0.487372
-0.421976
-0.364832
-0.314804
-0.799887
-0.775959
-0.746715
-0.698354
-0.63225
-0.558942
-0.487184
-0.421414
-0.362925
-0.310974
-0.756197
-0.735723
-0.714202
-0.677381
-0.621499
-0.554379
-0.485098
-0.419396
-0.359671
-0.305811
-0.713212
-0.695572
-0.679977
-0.653263
-0.607624
-0.547556
-0.48169
-0.416732
-0.355989
-0.299911
-0.671902
-0.656616
-0.645411
-0.626988
-0.590982
-0.538542
-0.477226
-0.414359
-0.354239
-0.297698
-0.632591
-0.619408
-0.611396
-0.599279
-0.571632
-0.526813
-0.470936
-0.411523
-0.353437
-0.29944
-0.595003
-0.583922
-0.578261
-0.570513
-0.549375
-0.511395
-0.461398
-0.407307
-0.355736
-0.313941
-0.558368
-0.549592
-0.545748
-0.540642
-0.523802
-0.490981
-0.445898
-0.396133
-0.348107
-0.306373
-0.521636
-0.51547
-0.513086
-0.509148
-0.494324
-0.464344
-0.422057
-0.374196
-0.326969
-0.283764
-0.483847
-0.480555
-0.479277
-0.475267
-0.46048
-0.431246
-0.390094
-0.343133
-0.29657
-0.253271
-0.444608
-0.44428
-0.443637
-0.438509
-0.422289
-0.392359
-0.351462
-0.305361
-0.260018
-0.217916
-0.404572
-0.40705
-0.406441
-0.399344
-0.380714
-0.349225
-0.308128
-0.263007
-0.219342
-0.179499
-0.365729
-0.370611
-0.369426
-0.359784
-0.338242
-0.304791
-0.26329
-0.219244
-0.177587
-0.140886
-0.331326
-0.338037
-0.335863
-0.323527
-0.299073
-0.263671
-0.221753
-0.178796
-0.13929
-0.106191
-0.305281
-0.313187
-0.309979
-0.295359
-0.26853
-0.231559
-0.189322
-0.147292
-0.109693
-0.0798687
-0.291182
-0.299668
-0.295803
-0.279862
-0.251691
-0.213841
-0.171433
-0.129941
-0.093493
-0.0656493
0.0705357
0.0342976
0.0138653
0.0068389
0.00320791
0.00166985
0.000899447
0.000473151
0.000226026
6.12145e-05
0.068685
0.0332682
0.0137914
0.00682091
0.00319862
0.00166609
0.000897763
0.000472291
0.000225599
6.10984e-05
0.0644693
0.0313321
0.0136456
0.00678444
0.00318009
0.00165866
0.000894452
0.000470591
0.000224786
6.08451e-05
0.0571707
0.0286687
0.0134277
0.00672787
0.00315243
0.00164756
0.000889428
0.00046804
0.000223574
6.04514e-05
0.0463309
0.0254581
0.0131372
0.00665016
0.00311617
0.00163285
0.000882735
0.00046465
0.000221945
5.99083e-05
0.0321102
0.021877
0.0127821
0.00655405
0.00307297
0.00161504
0.000874602
0.000460501
0.000219915
5.92233e-05
0.0148205
0.0180111
0.012364
0.00644224
0.00302405
0.00159439
0.000865131
0.000455623
0.000217494
5.84133e-05
-0.00679605
0.0135574
0.0118007
0.00629845
0.00296461
0.00156879
0.000853394
0.000449609
0.000214511
5.74408e-05
-0.0342216
0.00803343
0.0109684
0.00609895
0.00288794
0.00153559
0.000838311
0.000442002
0.00021076
5.62403e-05
-0.0565533
0.0026412
0.0101557
0.00590169
0.00280715
0.00150011
0.000822431
0.000434028
0.00020684
5.50124e-05
-0.0890797
-0.0102498
0.00907234
0.00566226
0.00263606
0.00141228
0.000781778
0.000412387
0.000196076
5.2025e-05
-0.0892992
-0.020882
0.00311704
0.00350975
0.00173008
0.000986529
0.000583287
0.000318183
0.00015383
4.13493e-05
-0.0622469
-0.0226863
-0.00143675
0.00145105
0.000818269
0.000502238
0.00033056
0.000191851
9.52331e-05
2.56504e-05
-0.0437913
-0.0217575
-0.00479551
-0.000429947
-3.7027e-05
3.3621e-05
7.07719e-05
5.67534e-05
3.16722e-05
9.16111e-06
-0.0297059
-0.0187431
-0.00666418
-0.00195237
-0.000807721
-0.000398908
-0.000178933
-7.78438e-05
-3.27426e-05
-7.57893e-06
-0.0199419
-0.0154698
-0.00746656
-0.00308597
-0.00147024
-0.000780433
-0.000404649
-0.00020311
-9.36991e-05
-2.35189e-05
-0.0136431
-0.0126349
-0.00761909
-0.003857
-0.00200352
-0.00109874
-0.000595977
-0.00031165
-0.000147297
-3.76384e-05
-0.00965277
-0.0104666
-0.00746538
-0.0043363
-0.00239897
-0.00134463
-0.000745451
-0.00039777
-0.000190332
-4.90583e-05
-0.00730819
-0.00903104
-0.00724596
-0.00460308
-0.00265781
-0.00151172
-0.000847863
-0.000457373
-0.000220382
-5.70816e-05
-0.00622497
-0.00831886
-0.00710303
-0.00471999
-0.00278542
-0.00159625
-0.000899932
-0.000487852
-0.000235853
-6.12431e-05
-0.140861
-0.141377
-0.137738
-0.130093
-0.118349
-0.102594
-0.0832705
-0.0630499
-0.0475322
-0.0500907
-0.0623143
-0.0635755
-0.0642004
-0.0653928
-0.0682193
-0.07367
-0.0820275
-0.0929754
-0.103867
-0.110523
-0.0338055
-0.037336
-0.0407556
-0.0442045
-0.047428
-0.0497743
-0.050416
-0.049063
-0.0467026
-0.0464306
-0.0159698
-0.0179362
-0.0193762
-0.020347
-0.0209302
-0.0212507
-0.0215975
-0.0223807
-0.0240125
-0.0265401
-0.00659818
-0.00809448
-0.00942643
-0.0107023
-0.0120365
-0.0134693
-0.0150012
-0.0165399
-0.0180465
-0.0194636
-0.00224294
-0.00353492
-0.00474655
-0.00589997
-0.00701431
-0.00806613
-0.00904523
-0.00993214
-0.0108126
-0.0117538
0.000259065
-0.000744072
-0.00168635
-0.00257568
-0.0034269
-0.00423949
-0.00502632
-0.00578397
-0.00655553
-0.00734118
0.00166052
0.000841515
5.66995e-05
-0.00069733
-0.00142834
-0.00213484
-0.00282175
-0.00348085
-0.00413179
-0.00476576
0.00238348
0.0016774
0.000992135
0.000328082
-0.000317143
-0.000941155
-0.00154635
-0.00212705
-0.00269508
-0.00324048
0.00267428
0.00202736
0.00139624
0.000782157
0.000184471
-0.000395028
-0.000958469
-0.00150174
-0.0020324
-0.00254028
0.0389164
0.00179614
-0.0226589
-0.0411531
-0.0605392
-0.0812074
-0.100416
-0.116146
-0.128019
-0.136298
0.0372432
0.0184946
0.000244175
-0.0134184
-0.0240984
-0.0341137
-0.043389
-0.0507949
-0.0560984
-0.0598516
0.0299786
0.0183952
0.0065571
-0.00263653
-0.00922993
-0.0144901
-0.0190478
-0.0229653
-0.0265281
-0.0301396
0.0236121
0.0168095
0.0097877
0.00413499
-6.16938e-05
-0.00337398
-0.00619092
-0.00869301
-0.0111133
-0.0135961
0.0192644
0.0153922
0.0111849
0.00756125
0.0046691
0.00228891
0.000254949
-0.00153329
-0.00322833
-0.00493655
0.0159285
0.0135814
0.0109506
0.00855885
0.00652438
0.0047646
0.00321044
0.00180983
0.00046897
-0.000887417
0.0133165
0.0118085
0.010109
0.00849991
0.00705541
0.00574645
0.0045479
0.00343863
0.00237215
0.00130952
0.0114186
0.0103842
0.00923727
0.00811687
0.00706366
0.00606981
0.0051286
0.00423386
0.00336607
0.00250734
0.0101883
0.00940386
0.00856344
0.00772668
0.00691138
0.00611597
0.00533973
0.00458285
0.00384034
0.00310673
0.00958871
0.00890864
0.00820007
0.0074881
0.00678029
0.00607694
0.00537906
0.00468884
0.00400736
0.00333528
0.193502
0.19359
0.193597
0.192829
0.190974
0.186211
0.177935
0.162491
0.135344
0.090158
0.138933
0.137755
0.134921
0.130546
0.124326
0.115774
0.104633
0.0906342
0.0736209
0.0548706
0.095798
0.0945559
0.0918217
0.0878614
0.082745
0.076582
0.0695329
0.0616306
0.0524674
0.0416004
0.0662006
0.0653956
0.0636858
0.0611963
0.0579617
0.0540356
0.049488
0.044239
0.038008
0.0308006
0.0468891
0.046401
0.0453509
0.043757
0.0415987
0.038894
0.0357154
0.0320765
0.0279257
0.023424
0.034183
0.0338532
0.0331458
0.0320647
0.0305946
0.0287494
0.0265904
0.0241503
0.0214218
0.0185178
0.0258402
0.0256089
0.0251211
0.0243792
0.023373
0.0221077
0.0206197
0.0189344
0.0170545
0.0150539
0.0205182
0.0203502
0.020001
0.0194697
0.0187479
0.0178363
0.0167547
0.0155248
0.0141513
0.0126771
0.0173697
0.0172378
0.016967
0.0165547
0.0159942
0.0152844
0.0144357
0.0134666
0.0123796
0.0111953
0.0159057
0.0157899
0.0155545
0.015196
0.0147085
0.0140905
0.0133479
0.0124978
0.011541
0.0104872
0.285855
0.288834
0.295011
0.304398
0.317274
0.333813
0.354792
0.380305
0.411407
0.447475
0.284122
0.287073
0.293164
0.302361
0.314956
0.331109
0.351592
0.376434
0.406685
0.441479
0.280735
0.283629
0.289552
0.298377
0.310423
0.325815
0.345322
0.36883
0.397385
0.429614
0.275835
0.278645
0.284328
0.292618
0.303868
0.318148
0.336212
0.357728
0.383725
0.412046
0.26962
0.272321
0.277702
0.285315
0.295555
0.308401
0.324581
0.343453
0.366004
0.389004
0.262319
0.264893
0.269925
0.276745
0.285799
0.29693
0.310816
0.326416
0.344604
0.360826
0.254165
0.256611
0.261276
0.267225
0.274969
0.284156
0.295374
0.3071
0.320004
0.327874
0.245378
0.247693
0.25201
0.257091
0.263509
0.270612
0.278875
0.286129
0.292774
0.290774
0.236172
0.238302
0.242249
0.2465
0.251727
0.256787
0.262115
0.264575
0.263589
0.250641
0.226778
0.22859
0.23196
0.23526
0.239283
0.242381
0.24514
0.243436
0.235488
0.207061
0.226781
0.228593
0.231963
0.235263
0.239286
0.242384
0.245145
0.243441
0.235494
0.207069
0.236174
0.238305
0.242252
0.246503
0.25173
0.25679
0.262119
0.26458
0.263596
0.250649
0.245381
0.247696
0.252013
0.257094
0.263512
0.270615
0.278878
0.286133
0.29278
0.290781
0.254167
0.256613
0.261278
0.267228
0.274972
0.284158
0.295377
0.307104
0.320009
0.327879
0.262321
0.264895
0.269927
0.276747
0.285801
0.296933
0.310818
0.32642
0.344608
0.360831
0.269622
0.272322
0.277704
0.285317
0.295557
0.308403
0.324583
0.343456
0.366007
0.389008
0.275836
0.278646
0.28433
0.292619
0.303869
0.318149
0.336214
0.35773
0.383728
0.412048
0.280736
0.28363
0.289553
0.298378
0.310424
0.325816
0.345323
0.368831
0.397387
0.429616
0.284123
0.287074
0.293165
0.302362
0.314956
0.331109
0.351593
0.376435
0.406686
0.44148
0.285855
0.288834
0.295011
0.304399
0.317274
0.333814
0.354792
0.380306
0.411407
0.447476
0.0159081
0.0157923
0.0155566
0.0151976
0.0147097
0.0140921
0.0133499
0.0124998
0.0115426
0.0104885
0.0173718
0.0172398
0.0169689
0.0165569
0.015997
0.0152878
0.0144391
0.0134697
0.0123823
0.0111973
0.0205211
0.020353
0.0200034
0.0194717
0.0187499
0.0178385
0.0167571
0.0155271
0.0141536
0.0126798
0.0258433
0.0256119
0.0251243
0.0243827
0.0233765
0.0221106
0.0206221
0.0189366
0.0170567
0.0150562
0.0341866
0.0338567
0.0331493
0.0320684
0.0305984
0.028753
0.0265939
0.0241541
0.0214261
0.0185225
0.0468933
0.0464052
0.0453553
0.0437615
0.0416031
0.038898
0.035719
0.03208
0.0279297
0.0234288
0.0662051
0.0654002
0.0636905
0.0612013
0.0579671
0.054041
0.049493
0.0442436
0.0380128
0.0308058
0.0958032
0.094561
0.0918267
0.0878658
0.0827495
0.0765877
0.0695392
0.0616359
0.0524724
0.0416067
0.138938
0.13776
0.134926
0.130551
0.124331
0.11578
0.10464
0.0906404
0.0736264
0.0548782
0.193506
0.193594
0.193601
0.192832
0.190978
0.186216
0.177942
0.162497
0.135348
0.0901644
0.00959059
0.00891103
0.00820257
0.00749041
0.00678237
0.00607885
0.00538084
0.00469051
0.00400897
0.00333677
0.0101892
0.00940392
0.00856308
0.00772631
0.00691116
0.00611598
0.00534009
0.00458355
0.00384117
0.00310763
0.0114216
0.0103872
0.00924024
0.00811983
0.00706666
0.0060727
0.00513116
0.00423609
0.00336814
0.00250936
0.0133192
0.0118117
0.0101125
0.00850357
0.00705913
0.00575007
0.00455119
0.00344164
0.00237522
0.00131273
0.0159327
0.013585
0.0109539
0.00856197
0.00652743
0.00476771
0.00321387
0.0018136
0.000472795
-0.000883785
0.0192698
0.0153977
0.0111901
0.00756624
0.00467391
0.00229365
0.000259754
-0.00152852
-0.0032239
-0.00493252
0.0236173
0.0168146
0.00979276
0.00414031
-5.56825e-05
-0.00336745
-0.00618481
-0.00868792
-0.0111088
-0.0135912
0.0299855
0.0184019
0.00656337
-0.00263006
-0.00922298
-0.0144829
-0.0190406
-0.0229581
-0.0265209
-0.0301327
0.0372519
0.0185027
0.000251012
-0.0134122
-0.0240918
-0.0341066
-0.0433816
-0.0507875
-0.0560912
-0.0598446
0.0389275
0.00180902
-0.0226469
-0.0411419
-0.0605278
-0.0811955
-0.100404
-0.116134
-0.128007
-0.136286
0.00267557
0.00202839
0.00139707
0.000782879
0.000185174
-0.000394304
-0.000957693
-0.00150084
-0.00203131
-0.00253897
0.00238459
0.00167887
0.000993924
0.000330114
-0.00031487
-0.000938704
-0.00154391
-0.00212471
-0.0026927
-0.0032379
0.0016625
0.000843401
5.85117e-05
-0.000695551
-0.00142662
-0.00213311
-0.00281981
-0.00347868
-0.00412958
-0.00476353
0.000262184
-0.000741187
-0.00168353
-0.0025728
-0.00342412
-0.00423688
-0.00502374
-0.00578132
-0.0065529
-0.00733868
-0.00223942
-0.00353142
-0.00474326
-0.00589697
-0.00701139
-0.00806335
-0.00904282
-0.00992992
-0.0108101
-0.0117511
-0.00659427
-0.00809047
-0.00942241
-0.0106982
-0.0120322
-0.0134649
-0.0149975
-0.0165373
-0.0180443
-0.0194611
-0.0159647
-0.0179316
-0.0193721
-0.0203429
-0.0209262
-0.0212471
-0.0215935
-0.0223763
-0.024008
-0.0265359
-0.0337992
-0.0373303
-0.0407506
-0.0442001
-0.0474239
-0.0497704
-0.0504122
-0.0490594
-0.046699
-0.046427
-0.0623077
-0.0635693
-0.0641947
-0.0653877
-0.0682145
-0.0736653
-0.0820231
-0.0929713
-0.103863
-0.110519
-0.140849
-0.141365
-0.137728
-0.130084
-0.11834
-0.102586
-0.0832632
-0.0630439
-0.0475271
-0.0500858
-0.00622201
-0.00831621
-0.00710151
-0.00471868
-0.00278422
-0.00159527
-0.000899201
-0.000487446
-0.000235597
-6.11559e-05
-0.00730488
-0.00902869
-0.00724439
-0.00460173
-0.00265658
-0.00151077
-0.000847179
-0.000456995
-0.000220133
-5.69837e-05
-0.00964994
-0.0104646
-0.00746373
-0.00433487
-0.00239777
-0.00134377
-0.000744847
-0.000397425
-0.000190096
-4.89674e-05
-0.0136404
-0.0126328
-0.00761726
-0.00385548
-0.00200235
-0.00109798
-0.000595485
-0.000311355
-0.000147077
-3.75396e-05
-0.0199388
-0.0154678
-0.0074645
-0.00308437
-0.00146916
-0.000779729
-0.000404248
-0.000202892
-9.35032e-05
-2.33996e-05
-0.0297027
-0.0187415
-0.00666211
-0.0019508
-0.000806821
-0.000398323
-0.00017859
-7.76867e-05
-3.25934e-05
-7.44726e-06
-0.0437885
-0.0217564
-0.0047937
-0.000428628
-3.63357e-05
3.40835e-05
7.10627e-05
5.68562e-05
3.17684e-05
9.2971e-06
-0.0622443
-0.0226853
-0.00143532
0.00145208
0.000818803
0.000502626
0.000330743
0.000191846
9.52994e-05
2.5795e-05
-0.0892977
-0.0208815
0.00311808
0.00351043
0.00173038
0.000986884
0.000583374
0.000318013
0.000153869
4.15039e-05
-0.0890815
-0.0102508
0.00907297
0.00566281
0.00263611
0.00141239
0.000781741
0.000412255
0.000196189
5.21286e-05
-0.0565588
0.00264072
0.0101564
0.00590231
0.002807
0.00150034
0.000822536
0.000434071
0.000207009
5.51133e-05
-0.0342287
0.00803319
0.010969
0.00609955
0.00288773
0.00153583
0.000838424
0.000442064
0.000210936
5.63315e-05
-0.00680446
0.0135575
0.0118014
0.00629905
0.00296436
0.00156903
0.000853493
0.000449674
0.000214688
5.75174e-05
0.0148114
0.0180113
0.0123646
0.00644283
0.00302377
0.00159463
0.000865218
0.000455696
0.000217671
5.84756e-05
0.0321008
0.0218772
0.0127827
0.00655465
0.00307264
0.00161527
0.000874683
0.000460591
0.000220091
5.92719e-05
0.0463217
0.0254583
0.0131378
0.00665078
0.00311579
0.00163307
0.000882803
0.000464762
0.000222124
5.99445e-05
0.0571624
0.0286688
0.0134284
0.00672853
0.00315201
0.00164777
0.000889472
0.000468166
0.00022376
6.04797e-05
0.0644626
0.0313321
0.0136462
0.00678509
0.00317968
0.00165886
0.000894477
0.000470703
0.00022496
6.08663e-05
0.0686806
0.0332682
0.0137919
0.00682144
0.00319833
0.00166624
0.000897801
0.00047237
0.000225726
6.11057e-05
0.0705342
0.0342976
0.0138655
0.0068391
0.00320782
0.00166991
0.000899467
0.00047319
0.000226074
6.12053e-05
)
;

boundaryField
{
    inlet
    {
        type            zeroGradient;
    }
    outlet
    {
        type            fixedValue;
        value           uniform 0;
    }
    cylinder
    {
        type            zeroGradient;
    }
    top
    {
        type            symmetryPlane;
    }
    bottom
    {
        type            symmetryPlane;
    }
    defaultFaces
    {
        type            empty;
    }
}


// ************************************************************************* //
