/*--------------------------------*- C++ -*----------------------------------*\
  =========                 |
  \\      /  F ield         | OpenFOAM: The Open Source CFD Toolbox
   \\    /   O peration     | Website:  https://openfoam.org
    \\  /    A nd           | Version:  6.0
     \\/     M anipulation  |
\*---------------------------------------------------------------------------*/
FoamFile
{
    version     2.0;
    format      ascii;
    class       volVectorField;
    location    "1";
    object      U;
}
// * * * * * * * * * * * * * * * * * * * * * * * * * * * * * * * * * * * * * //

dimensions      [0 1 -1 0 0 0 0];

internalField   nonuniform List<vector> 
2000
(
(-0.0281865 0.0209911 5.03098e-20)
(-0.0861183 0.0273326 4.94338e-20)
(-0.138099 0.0179258 -4.35405e-20)
(-0.15756 0.00232239 -7.82933e-20)
(-0.143717 -0.0149461 -4.52535e-20)
(-0.102375 -0.0312383 5.08862e-20)
(-0.0403401 -0.0449529 1.82673e-20)
(0.0353409 -0.0553228 -9.88679e-21)
(0.119235 -0.0621647 -1.32432e-20)
(0.208468 -0.0653441 5.78078e-21)
(-0.0316312 0.0605522 -1.295e-19)
(-0.0859545 0.0792 1.47379e-19)
(-0.129123 0.0518171 7.16396e-21)
(-0.138514 0.00604946 -6.54304e-20)
(-0.114786 -0.0446883 2.96707e-19)
(-0.0646827 -0.0924722 -1.11761e-19)
(0.00425856 -0.132493 -8.98429e-20)
(0.0845576 -0.162487 9.25808e-20)
(0.170439 -0.182041 -5.35836e-20)
(0.260877 -0.191085 2.75583e-20)
(-0.0378391 0.0933379 2.16266e-20)
(-0.0855944 0.122968 1.21932e-20)
(-0.112266 0.0797892 4.36817e-19)
(-0.102584 0.00673669 1.42458e-19)
(-0.0601303 -0.0744394 3.12727e-20)
(0.00638236 -0.150581 1.66427e-19)
(0.0879594 -0.213702 -2.73031e-19)
(0.176398 -0.260171 9.91178e-22)
(0.26534 -0.289685 -1.13476e-19)
(0.357142 -0.303071 5.99668e-20)
(-0.0456131 0.116341 -4.44403e-20)
(-0.08479 0.154432 2.23584e-19)
(-0.0890973 0.0983373 -5.81673e-19)
(-0.0530683 0.00224557 -5.7579e-20)
(0.015266 -0.104687 -3.48155e-19)
(0.104039 -0.204285 3.30901e-19)
(0.202059 -0.285594 -3.11105e-19)
(0.300316 -0.343892 1.85237e-19)
(0.391985 -0.379386 6.21822e-20)
(0.483602 -0.394742 -2.59541e-20)
(-0.0535197 0.128367 -5.54252e-19)
(-0.0828345 0.171004 1.02765e-20)
(-0.060752 0.104741 7.88873e-19)
(0.00707412 -0.00943591 2.11535e-19)
(0.106582 -0.136213 -6.34305e-19)
(0.221379 -0.252916 3.85771e-19)
(0.337399 -0.346171 3.27875e-19)
(0.444987 -0.410735 -2.65125e-19)
(0.537594 -0.447689 1.66024e-19)
(0.625812 -0.462301 3.24461e-20)
(-0.0601915 0.130001 7.37327e-20)
(-0.0784125 0.171994 1.47645e-20)
(-0.0271588 0.0975007 -1.07269e-18)
(0.0764294 -0.0297037 -5.62066e-19)
(0.210546 -0.16961 6.2497e-19)
(0.35279 -0.296006 -6.7297e-19)
(0.485891 -0.394109 6.76343e-19)
(0.600093 -0.45908 -7.40984e-20)
(0.690571 -0.493134 -1.64734e-19)
(0.77111 -0.50471 -2.91061e-19)
(-0.0645392 0.123122 -1.8471e-19)
(-0.0696136 0.158529 -2.78087e-19)
(0.0132966 0.0767218 -3.39871e-19)
(0.155571 -0.0586634 6.32974e-19)
(0.325675 -0.204528 1.12087e-18)
(0.493983 -0.332683 -2.3084e-19)
(0.640503 -0.428434 -4.24807e-19)
(0.756573 -0.488489 1.29783e-19)
(0.840964 -0.516194 -6.36628e-19)
(0.909291 -0.523643 5.00036e-19)
(-0.0657999 0.110184 1.13573e-18)
(-0.0540829 0.133159 -5.21249e-19)
(0.0635709 0.0443002 9.48329e-19)
(0.246567 -0.0944955 -1.48548e-18)
(0.4514 -0.238919 -6.70434e-19)
(0.640982 -0.361035 -8.52174e-19)
(0.794414 -0.44806 2.54936e-19)
(0.906124 -0.499238 -5.28022e-19)
(0.980247 -0.518744 1.11856e-18)
(1.0325 -0.522709 1.89288e-19)
(-0.0634277 0.0935392 8.67349e-20)
(-0.0292384 0.0992546 8.36695e-19)
(0.127302 0.00381963 1.62607e-18)
(0.351778 -0.133244 4.75346e-19)
(0.586739 -0.268842 1.32515e-18)
(0.789254 -0.377984 6.55755e-20)
(0.940635 -0.451481 2.66828e-20)
(1.04087 -0.491496 4.31852e-19)
(1.10062 -0.502735 2.83639e-19)
(1.13427 -0.505773 -6.92972e-19)
(-0.0569139 0.075017 -6.83759e-19)
(0.00748451 0.0604371 -9.64373e-19)
(0.207835 -0.0398806 -1.34747e-18)
(0.472386 -0.169398 2.52937e-20)
(0.729357 -0.289373 -6.14734e-19)
(0.934003 -0.380255 8.85987e-19)
(1.07353 -0.437362 -2.23366e-18)
(1.15515 -0.465337 9.51072e-19)
(1.19553 -0.469639 2.90219e-19)
(1.20792 -0.475523 6.30146e-19)
(-0.0456434 0.0558364 3.5036e-19)
(0.0583588 0.0202285 -1.11774e-18)
(0.307103 -0.0813449 9.49733e-19)
(0.60707 -0.197141 -3.51432e-19)
(0.875061 -0.296268 3.69165e-19)
(1.07069 -0.366026 6.9491e-19)
(1.19058 -0.405904 -8.94631e-19)
(1.24935 -0.422071 7.89855e-20)
(1.26599 -0.421851 -3.42451e-19)
(1.24877 -0.432006 2.71575e-19)
(-0.0288485 0.0367844 5.01944e-19)
(0.125049 -0.0179803 -1.03415e-18)
(0.42466 -0.115144 1.34692e-18)
(0.751457 -0.211617 -7.87238e-19)
(1.01785 -0.287198 -2.68745e-19)
(1.19459 -0.335894 1.5063e-19)
(1.29015 -0.360032 1.07202e-19)
(1.32654 -0.36576 8.09098e-19)
(1.32534 -0.359785 2.06566e-19)
(1.30188 -0.356325 4.86669e-19)
(-0.00566401 0.0185084 -4.54825e-19)
(0.208226 -0.0507706 1.34481e-18)
(0.557246 -0.136483 -1.08354e-18)
(0.898802 -0.209719 -1.18607e-18)
(1.15113 -0.261885 1.56858e-18)
(1.30152 -0.2921 -1.02826e-18)
(1.37054 -0.304025 2.66326e-19)
(1.38578 -0.30319 -1.17429e-18)
(1.3702 -0.294871 8.24566e-19)
(1.33823 -0.288776 1.19133e-20)
(0.0247429 0.00178162 -6.018e-19)
(0.307117 -0.0746264 -4.85454e-19)
(0.699093 -0.141812 -9.97521e-19)
(1.04151 -0.190396 1.14627e-18)
(1.26935 -0.221736 -3.59671e-20)
(1.38914 -0.237566 5.99668e-19)
(1.43216 -0.241293 9.15125e-19)
(1.42938 -0.23694 -2.73297e-19)
(1.40318 -0.228118 -6.95679e-19)
(1.36738 -0.220571 1.05744e-18)
(0.0629915 -0.01233 -3.15514e-19)
(0.419133 -0.0861404 -3.2029e-19)
(0.84295 -0.129227 5.49477e-19)
(1.17272 -0.154392 -9.31765e-19)
(1.36882 -0.169169 1.71009e-19)
(1.45694 -0.175316 1.23686e-19)
(1.47637 -0.174863 2.20497e-20)
(1.45901 -0.170163 -4.47527e-20)
(1.42539 -0.163199 -1.22414e-19)
(1.38721 -0.156703 -9.05102e-19)
(0.10927 -0.0224269 1.29907e-18)
(0.53985 -0.0824995 -7.67149e-19)
(0.981442 -0.0985266 3.2018e-21)
(1.28732 -0.103683 -1.01708e-18)
(1.44799 -0.106912 -2.9719e-19)
(1.50596 -0.107861 2.99004e-19)
(1.50543 -0.10651 1.66521e-19)
(1.47723 -0.103466 -5.96232e-19)
(1.43902 -0.0991174 3.99881e-19)
(1.40006 -0.0947189 -4.11686e-19)
(0.163113 -0.0268632 5.68136e-19)
(0.663497 -0.0620145 -4.37235e-19)
(1.10818 -0.0509485 1.65841e-18)
(1.3822 -0.0409221 1.45399e-19)
(1.5069 -0.037654 3.27174e-19)
(1.53801 -0.0372905 1.2422e-18)
(1.52163 -0.0375789 -2.04695e-19)
(1.4859 -0.0376314 1.09609e-19)
(1.44524 -0.0366748 2.37146e-20)
(1.40655 -0.0351932 -5.80499e-20)
(0.223235 -0.0239463 4.04475e-19)
(0.783815 -0.0244223 8.17139e-19)
(1.21832 0.0112189 -8.02657e-19)
(1.45595 0.0309627 -2.27346e-19)
(1.54661 0.0361195 -2.54038e-19)
(1.55513 0.0347168 3.81066e-19)
(1.52695 0.0310716 -1.70715e-19)
(1.48657 0.0272206 4.29416e-19)
(1.44512 0.0247011 1.20748e-19)
(1.40743 0.0229183 -1.62483e-19)
(0.287491 -0.0122119 -4.40034e-19)
(0.894922 0.029137 3.29796e-19)
(1.30857 0.0849998 -6.50391e-19)
(1.5084 0.108985 2.51191e-19)
(1.56861 0.112117 -2.36634e-19)
(1.55922 0.106643 -2.59757e-19)
(1.52294 0.0985146 -1.81821e-19)
(1.48017 0.0904691 1.91522e-19)
(1.43907 0.0843295 -3.27437e-19)
(1.40289 0.0789604 1.61879e-19)
(0.352995 0.00928398 -1.58875e-19)
(0.991878 0.0963753 -2.61489e-19)
(1.37705 0.167036 1.17949e-19)
(1.54016 0.190239 1.03535e-20)
(1.57454 0.188254 7.79573e-20)
(1.55187 0.177117 9.19331e-20)
(1.51072 0.163859 7.38366e-20)
(1.46734 0.151496 -9.61597e-20)
(1.42738 0.141766 7.43826e-20)
(1.39305 0.132659 -9.15908e-20)
(0.416388 0.0407305 -9.68738e-20)
(1.07093 0.174193 -3.321e-20)
(1.42296 0.253833 1.02566e-19)
(1.55233 0.271997 -4.74253e-20)
(1.56599 0.26264 9.93975e-20)
(1.53438 0.24484 -1.19774e-19)
(1.49108 0.226102 2.83636e-20)
(1.44847 0.209347 2.61249e-20)
(1.41021 0.195945 -8.92335e-21)
(1.37798 0.182857 2.94006e-20)
(0.474194 0.0814415 -1.10274e-19)
(1.12953 0.259011 -3.91982e-19)
(1.44644 0.341972 -2.2249e-20)
(1.54627 0.351775 5.42509e-21)
(1.54437 0.333601 -3.54709e-19)
(1.50772 0.308637 4.38017e-20)
(1.46457 0.284306 -3.56052e-20)
(1.42383 0.263171 -7.95403e-20)
(1.38777 0.246046 1.58168e-19)
(1.35799 0.228846 -2.27209e-19)
(0.52318 0.129871 -5.91843e-20)
(1.16627 0.347042 8.26947e-19)
(1.44827 0.42824 8.89254e-20)
(1.52351 0.427359 -5.84849e-19)
(1.51099 0.399654 -5.98033e-20)
(1.47267 0.367441 -4.51241e-19)
(1.43155 0.337597 3.11163e-19)
(1.39363 0.312142 -1.07897e-19)
(1.36024 0.291229 1.91377e-19)
(1.3333 0.269846 -1.16517e-19)
(0.56068 0.183754 -3.487e-19)
(1.18081 0.434509 2.85753e-19)
(1.42981 0.509706 -1.67721e-19)
(1.4857 0.496794 1.14644e-18)
(1.46707 0.459488 4.94e-19)
(1.42993 0.420311 -1.07708e-19)
(1.39239 0.385258 3.63241e-19)
(1.35813 0.355705 -2.23114e-19)
(1.32794 0.331118 -6.0148e-20)
(1.3043 0.305809 3.41825e-19)
(0.584795 0.240316 -6.23443e-19)
(1.17365 0.517772 6.87791e-19)
(1.39284 0.583723 -1.13293e-18)
(1.43461 0.558334 1.60387e-19)
(1.41388 0.511903 2.88901e-19)
(1.38029 0.466366 -4.00093e-19)
(1.34763 0.426623 -4.96824e-19)
(1.31781 0.393365 2.30873e-19)
(1.29142 0.365429 -2.71779e-19)
(1.27151 0.33676 3.08347e-19)
(0.594481 0.296502 -1.56368e-19)
(1.14606 0.593412 -6.91141e-19)
(1.33942 0.647902 3.37824e-19)
(1.3721 0.61037 5.28687e-19)
(1.35278 0.555742 -2.83521e-19)
(1.32474 0.504735 -2.05721e-19)
(1.29811 0.461039 -2.00189e-19)
(1.27354 0.424641 -8.39017e-20)
(1.25167 0.393882 -6.23989e-21)
(1.23609 0.362695 2.28289e-19)
(0.589546 0.349197 1.90371e-19)
(1.09993 0.658315 -7.63889e-19)
(1.27185 0.700098 1.0351e-18)
(1.30006 0.651364 -5.54266e-19)
(1.28517 0.589769 1.98188e-19)
(1.26437 0.534388 -2.4093e-19)
(1.24489 0.487657 2.45331e-19)
(1.22659 0.448796 1.44721e-19)
(1.2103 0.415799 2.21204e-19)
(1.19987 0.383034 -3.01256e-19)
(0.570599 0.395452 -5.71609e-19)
(1.03761 0.709795 8.52449e-19)
(1.19253 0.73849 -2.91925e-20)
(1.22029 0.67989 -2.09805e-19)
(1.21226 0.612615 -1.94161e-19)
(1.20006 0.553906 4.96528e-20)
(1.18885 0.50504 -2.25645e-19)
(1.17826 0.464443 1.06742e-19)
(1.16923 0.429955 -1.42058e-19)
(1.16501 0.396915 -2.91083e-20)
(0.538984 0.432697 7.49802e-19)
(0.961867 0.745751 -2.34661e-19)
(1.10397 0.761777 -1.97905e-19)
(1.13456 0.694953 4.90564e-19)
(1.13503 0.623157 -3.48748e-19)
(1.13217 0.561668 1.11282e-19)
(1.12999 0.510802 2.61196e-20)
(1.12864 0.468443 -1.56861e-20)
(1.12877 0.433059 -3.01813e-20)
(1.13122 0.402095 -7.43334e-21)
(0.496666 0.458874 -5.68377e-19)
(0.875857 0.764709 3.1542e-19)
(1.00888 0.769275 -2.07345e-19)
(1.04475 0.696376 9.47162e-20)
(1.05455 0.621482 -3.48748e-20)
(1.0609 0.55758 6.09044e-20)
(1.06752 0.503801 -2.13858e-20)
(1.07571 0.457339 3.98196e-21)
(1.08508 0.418303 3.24193e-20)
(1.09161 0.390574 1.16807e-19)
(0.446082 0.472472 -2.14548e-19)
(0.783011 0.76572 1.11694e-19)
(0.910188 0.76066 8.21726e-20)
(0.953161 0.68444 -2.48889e-20)
(0.97262 0.608872 2.52359e-19)
(0.987553 0.544566 1.6607e-19)
(1.00168 0.489183 -3.65985e-19)
(1.01749 0.437963 5.86261e-19)
(1.0333 0.388064 -1.28564e-19)
(1.03384 0.346264 2.43075e-19)
(0.389939 0.47252 5.12173e-20)
(0.686876 0.748291 -1.19297e-19)
(0.810969 0.735667 1.57881e-19)
(0.862441 0.658844 -1.93071e-19)
(0.892043 0.585148 -6.75194e-19)
(0.915631 0.523616 -2.88075e-19)
(0.936505 0.472042 -2.24029e-19)
(0.956409 0.427333 1.26796e-19)
(0.971231 0.389348 9.48928e-19)
(0.968861 0.361906 -1.64256e-19)
(0.331046 0.458621 8.79088e-20)
(0.590922 0.712521 -3.36758e-19)
(0.714103 0.694499 7.78692e-20)
(0.774966 0.619371 -5.37063e-19)
(0.815227 0.548635 1.10847e-18)
(0.848405 0.489412 -1.36568e-19)
(0.877338 0.439022 5.84492e-19)
(0.903091 0.39451 -7.82206e-19)
(0.921976 0.356647 2.47288e-19)
(0.925468 0.331683 3.54145e-20)
(0.272215 0.430935 5.05485e-20)
(0.498527 0.659093 3.68995e-19)
(0.622319 0.638071 -1.25063e-18)
(0.692557 0.567541 5.58973e-19)
(0.742602 0.502562 1.08231e-20)
(0.784117 0.448925 -1.80286e-19)
(0.819951 0.404096 2.30952e-19)
(0.851264 0.365261 -2.0758e-19)
(0.875214 0.332042 -6.82937e-19)
(0.885628 0.307925 -1.73627e-19)
(0.216144 0.390088 2.66042e-19)
(0.412935 0.58902 2.82902e-19)
(0.538552 0.566989 1.11041e-18)
(0.618175 0.502959 -5.9789e-19)
(0.677706 0.444653 1.17172e-18)
(0.727159 0.39655 -2.38676e-19)
(0.769415 0.356392 -2.34279e-19)
(0.806042 0.322039 2.70539e-19)
(0.835191 0.293271 1.72279e-19)
(0.852221 0.272357 5.35432e-19)
(0.165257 0.337225 -3.25541e-19)
(0.336846 0.504042 8.60809e-20)
(0.464747 0.483096 2.82001e-20)
(0.552876 0.427862 6.33873e-19)
(0.620816 0.378207 -1.49486e-18)
(0.677349 0.337499 2.48945e-19)
(0.725389 0.30366 5.0018e-19)
(0.766771 0.274747 -5.81408e-19)
(0.800576 0.250268 1.9822e-19)
(0.823736 0.231713 -7.96916e-19)
(0.121763 0.273897 7.24636e-20)
(0.272866 0.406162 3.34439e-19)
(0.4032 0.387941 1.2718e-19)
(0.498665 0.343061 1.58115e-19)
(0.573682 0.303024 2.79735e-19)
(0.636141 0.270301 7.75436e-19)
(0.689058 0.243233 -9.03389e-19)
(0.734508 0.220274 -4.80918e-19)
(0.772376 0.200819 7.66476e-20)
(0.800866 0.18567 5.26185e-19)
(0.087471 0.202018 -4.425e-19)
(0.22301 0.297852 -4.22386e-20)
(0.355521 0.283801 -3.50111e-19)
(0.456815 0.250744 4.75838e-20)
(0.537378 0.221438 -2.6467e-19)
(0.604446 0.197538 -2.86898e-19)
(0.661122 0.177806 -4.04571e-19)
(0.709712 0.161101 1.0363e-18)
(0.750813 0.146888 1.68942e-19)
(0.783625 0.135598 -2.26347e-19)
(0.0637983 0.123806 2.39943e-19)
(0.188866 0.181849 2.72072e-19)
(0.322992 0.172989 9.87232e-20)
(0.428321 0.152739 -5.08736e-19)
(0.512691 0.134857 -2.21934e-19)
(0.582921 0.120301 -4.612e-20)
(0.642173 0.108309 8.39314e-20)
(0.692918 0.0981771 6.50489e-20)
(0.73628 0.0895336 -4.71353e-19)
(0.772126 0.0825779 2.36578e-19)
(0.0517163 0.0417057 -1.27024e-19)
(0.171522 0.0611431 -1.21874e-19)
(0.306507 0.0581178 9.16096e-20)
(0.4139 0.0512989 7.60872e-20)
(0.500206 0.0452891 7.37073e-20)
(0.572041 0.0404008 1.05273e-19)
(0.6326 0.0363772 -6.42283e-21)
(0.684445 0.0329813 -1.2547e-19)
(0.728975 0.0300812 1.13038e-19)
(0.766389 0.0277342 -1.47957e-19)
(0.0517163 -0.0417067 -1.28468e-19)
(0.171522 -0.0611466 -1.16809e-19)
(0.306507 -0.0581228 1.01039e-19)
(0.413899 -0.051304 1.84308e-19)
(0.500205 -0.0452939 1.14258e-19)
(0.572041 -0.0404058 -1.43197e-19)
(0.6326 -0.0363823 -7.2442e-20)
(0.684444 -0.0329863 3.15919e-20)
(0.728975 -0.0300856 6.60715e-20)
(0.766389 -0.0277374 -3.40838e-20)
(0.0637983 -0.123807 3.04353e-19)
(0.188866 -0.181852 -3.2357e-19)
(0.322992 -0.172994 -2.5926e-20)
(0.42832 -0.152744 1.59265e-19)
(0.51269 -0.134862 -6.73762e-19)
(0.58292 -0.120306 2.71739e-19)
(0.642172 -0.108314 2.63798e-19)
(0.692917 -0.0981819 -2.98571e-19)
(0.736278 -0.0895378 2.72864e-19)
(0.772124 -0.0825809 -1.06002e-19)
(0.0874709 -0.202018 -5.09235e-20)
(0.22301 -0.297855 -3.54606e-22)
(0.355521 -0.283805 -8.14559e-19)
(0.456815 -0.250749 -2.37494e-19)
(0.537377 -0.221442 -1.67329e-20)
(0.604444 -0.197543 -3.51094e-19)
(0.66112 -0.177811 6.23627e-19)
(0.70971 -0.161106 -2.40586e-20)
(0.750811 -0.146892 3.28602e-19)
(0.783622 -0.135601 -2.47575e-19)
(0.121763 -0.273897 8.42565e-20)
(0.272866 -0.406165 -3.28829e-19)
(0.4032 -0.387945 9.71236e-19)
(0.498664 -0.343065 1.32992e-19)
(0.573681 -0.303028 5.96739e-19)
(0.63614 -0.270305 -5.45759e-19)
(0.689056 -0.243237 5.472e-19)
(0.734506 -0.220278 -3.82759e-19)
(0.772373 -0.200822 -1.64337e-19)
(0.800864 -0.185673 1.17179e-19)
(0.165257 -0.337225 7.01459e-19)
(0.336846 -0.504045 1.92565e-20)
(0.464747 -0.4831 -9.77908e-19)
(0.552875 -0.427866 -2.67096e-19)
(0.620815 -0.378211 8.53632e-19)
(0.677348 -0.337502 -4.69966e-19)
(0.725388 -0.303664 -5.16787e-19)
(0.766769 -0.274751 4.5052e-19)
(0.800574 -0.250271 -2.91611e-19)
(0.823734 -0.231716 -5.53414e-20)
(0.216143 -0.390087 -1.08699e-19)
(0.412935 -0.589022 -5.90607e-21)
(0.538552 -0.566992 9.9297e-19)
(0.618175 -0.502962 5.54125e-19)
(0.677705 -0.444656 -6.18606e-19)
(0.727158 -0.396553 7.23541e-19)
(0.769414 -0.356396 -7.30091e-19)
(0.806041 -0.322043 7.53425e-20)
(0.83519 -0.293275 2.06119e-19)
(0.852221 -0.27236 4.04932e-19)
(0.272214 -0.430934 7.62431e-20)
(0.498526 -0.659094 1.04059e-19)
(0.622319 -0.638074 1.19159e-19)
(0.692556 -0.567544 -4.74352e-19)
(0.742601 -0.502565 -8.08113e-19)
(0.784116 -0.448928 1.65945e-19)
(0.81995 -0.4041 4.76439e-19)
(0.851263 -0.365265 -1.29312e-19)
(0.875214 -0.332046 7.33502e-19)
(0.885629 -0.307929 -6.28053e-19)
(0.331044 -0.45862 -3.86868e-19)
(0.590921 -0.712521 5.60541e-20)
(0.714102 -0.694501 -4.41195e-19)
(0.774965 -0.619374 7.02935e-19)
(0.815225 -0.548638 3.54353e-19)
(0.848404 -0.489414 4.75383e-19)
(0.877337 -0.439025 -9.32706e-20)
(0.903091 -0.394515 4.12779e-19)
(0.921976 -0.356651 -8.3782e-19)
(0.925469 -0.331688 -1.94577e-19)
(0.389937 -0.472518 1.30251e-19)
(0.686874 -0.748291 -1.29065e-19)
(0.810968 -0.735669 -2.36545e-19)
(0.86244 -0.658846 -1.89143e-19)
(0.892041 -0.58515 -4.73127e-19)
(0.915629 -0.523619 -6.1559e-20)
(0.936504 -0.472045 5.81619e-20)
(0.956409 -0.427337 -1.57302e-19)
(0.971231 -0.389353 -1.99364e-19)
(0.968862 -0.361911 4.38862e-19)
(0.44608 -0.47247 -7.59402e-20)
(0.78301 -0.76572 -6.2853e-20)
(0.910187 -0.760662 1.70401e-19)
(0.95316 -0.684442 5.52614e-20)
(0.972618 -0.608874 1.79469e-19)
(0.987551 -0.544568 -2.03772e-19)
(1.00168 -0.489186 6.55497e-19)
(1.01749 -0.437967 -2.73289e-19)
(1.0333 -0.388071 -1.51562e-19)
(1.03384 -0.346272 -4.06471e-19)
(0.496664 -0.458872 4.92817e-20)
(0.875856 -0.764709 -3.06283e-19)
(1.00887 -0.769276 1.83351e-19)
(1.04475 -0.696377 -1.8643e-20)
(1.05455 -0.621484 6.86105e-21)
(1.0609 -0.557582 -4.33585e-20)
(1.06752 -0.503803 5.09111e-20)
(1.0757 -0.457343 -5.82429e-20)
(1.08508 -0.418308 2.88935e-20)
(1.09161 -0.39058 -7.24497e-20)
(0.538981 -0.432694 2.55684e-19)
(0.961865 -0.74575 -5.26209e-19)
(1.10397 -0.761777 4.71318e-19)
(1.13456 -0.694953 -1.41653e-19)
(1.13503 -0.623157 -1.00271e-19)
(1.13217 -0.561669 4.61214e-20)
(1.12999 -0.510804 9.85026e-21)
(1.12863 -0.468446 2.69843e-20)
(1.12876 -0.433063 -2.64179e-20)
(1.13121 -0.402099 3.98832e-21)
(0.570596 -0.39545 -3.18663e-19)
(1.03761 -0.709794 8.60233e-19)
(1.19253 -0.73849 -4.95782e-19)
(1.22029 -0.679889 -3.47359e-19)
(1.21225 -0.612614 4.31089e-19)
(1.20006 -0.553905 -2.2119e-19)
(1.18884 -0.50504 6.42206e-20)
(1.17826 -0.464444 -2.05805e-19)
(1.16922 -0.429958 1.33139e-19)
(1.16501 -0.396918 8.13303e-21)
(0.589542 -0.349195 -5.13493e-19)
(1.09993 -0.658313 -3.33049e-19)
(1.27185 -0.700097 -5.71865e-19)
(1.30006 -0.651363 6.36344e-19)
(1.28517 -0.589767 -2.52642e-20)
(1.26437 -0.534387 2.29534e-19)
(1.24489 -0.487656 3.25336e-19)
(1.22659 -0.448796 -1.01262e-19)
(1.21029 -0.4158 -2.11258e-19)
(1.19987 -0.383036 3.32894e-19)
(0.594478 -0.296501 -2.98418e-19)
(1.14606 -0.593411 -3.07259e-19)
(1.33942 -0.647901 3.86758e-19)
(1.3721 -0.610369 -5.71218e-19)
(1.35278 -0.55574 1.04811e-19)
(1.32474 -0.504733 5.58043e-20)
(1.29811 -0.461036 5.58343e-20)
(1.27353 -0.42464 -3.56877e-20)
(1.25167 -0.393881 -6.22024e-20)
(1.23608 -0.362696 -4.08092e-19)
(0.584792 -0.240315 1.21942e-18)
(1.17364 -0.517771 -7.2101e-19)
(1.39284 -0.583722 1.48822e-20)
(1.43461 -0.558332 -7.47085e-19)
(1.41388 -0.5119 -1.87706e-19)
(1.38029 -0.466363 1.6786e-19)
(1.34763 -0.426619 1.05526e-19)
(1.3178 -0.393362 -3.53344e-19)
(1.29141 -0.365427 2.0375e-19)
(1.27151 -0.33676 -2.44495e-19)
(0.560677 -0.183753 5.60324e-19)
(1.18081 -0.434509 -4.19056e-19)
(1.42981 -0.509705 1.41385e-18)
(1.4857 -0.496793 8.5623e-20)
(1.46707 -0.459485 2.55364e-19)
(1.42993 -0.420307 8.5905e-19)
(1.39239 -0.385254 -1.60185e-19)
(1.35812 -0.355701 5.63521e-20)
(1.32794 -0.331115 -1.39111e-21)
(1.3043 -0.305808 -3.49313e-20)
(0.523176 -0.12987 4.07391e-19)
(1.16627 -0.347043 7.86483e-19)
(1.44827 -0.428241 -6.86588e-19)
(1.52351 -0.427359 -1.64143e-19)
(1.51099 -0.399652 -1.71371e-19)
(1.47267 -0.367437 3.17663e-19)
(1.43154 -0.337593 -1.39413e-19)
(1.39362 -0.312138 3.2612e-19)
(1.36023 -0.291225 8.35239e-20)
(1.33329 -0.269844 -1.16257e-19)
(0.474189 -0.0814415 -4.40534e-19)
(1.12952 -0.259012 3.23477e-19)
(1.44644 -0.341974 -6.1426e-19)
(1.54627 -0.351776 2.26058e-19)
(1.54437 -0.333601 -2.05315e-19)
(1.50772 -0.308635 -2.20778e-19)
(1.46456 -0.284303 -1.55735e-19)
(1.42383 -0.263167 1.6472e-19)
(1.38776 -0.246042 -2.77262e-19)
(1.35799 -0.228843 1.39641e-19)
(0.416382 -0.040731 -1.59468e-19)
(1.07092 -0.174196 -2.58863e-19)
(1.42297 -0.253837 1.14654e-19)
(1.55233 -0.272001 1.1296e-20)
(1.56599 -0.262643 7.16511e-20)
(1.53438 -0.24484 8.86708e-20)
(1.49108 -0.2261 6.76619e-20)
(1.44846 -0.209345 -8.96942e-20)
(1.4102 -0.195942 6.87401e-20)
(1.37798 -0.182852 -8.55117e-20)
(0.352987 -0.00928511 -9.65672e-20)
(0.991873 -0.0963791 -3.36977e-20)
(1.37705 -0.167042 1.07839e-19)
(1.54016 -0.190245 -4.88631e-20)
(1.57454 -0.188259 1.07495e-19)
(1.55187 -0.177121 -1.26008e-19)
(1.51072 -0.163861 3.21766e-20)
(1.46734 -0.151495 2.55702e-20)
(1.42738 -0.141764 -7.64025e-21)
(1.39305 -0.132655 2.9197e-20)
(0.287482 0.01221 -1.08767e-19)
(0.894914 -0.0291419 -4.04361e-19)
(1.30857 -0.085008 -3.02313e-20)
(1.5084 -0.108994 1.03058e-20)
(1.56861 -0.112126 -4.0849e-19)
(1.55922 -0.10665 4.23391e-20)
(1.52294 -0.0985199 -4.11349e-20)
(1.48017 -0.0904721 -9.41012e-20)
(1.43907 -0.0843303 1.86344e-19)
(1.40289 -0.078959 -2.65796e-19)
(0.223225 0.0239436 -5.91435e-20)
(0.783803 0.0244162 8.67419e-19)
(1.21832 -0.0112291 9.61722e-20)
(1.45595 -0.0309756 -6.78898e-19)
(1.54661 -0.0361327 -9.4592e-20)
(1.55514 -0.0347288 -5.91049e-19)
(1.52696 -0.0310818 4.12836e-19)
(1.48657 -0.0272285 -1.42626e-19)
(1.44513 -0.0247067 2.62546e-19)
(1.40744 -0.0229218 -1.61889e-19)
(0.163101 0.0268597 -3.55149e-19)
(0.663479 0.0620069 3.41804e-19)
(1.10817 0.050936 -2.17769e-19)
(1.3822 0.0409059 1.45801e-18)
(1.50691 0.0376364 6.70209e-19)
(1.53802 0.0372732 -1.48422e-19)
(1.52164 0.0375628 5.54396e-19)
(1.48591 0.0376172 -3.20066e-19)
(1.44525 0.0366627 -7.28879e-20)
(1.40656 0.0351826 5.07714e-19)
(0.109258 0.0224225 -6.59063e-19)
(0.539828 0.08249 8.01909e-19)
(0.981426 0.0985118 -1.46578e-18)
(1.28732 0.103664 2.37108e-19)
(1.448 0.10689 4.98781e-19)
(1.50597 0.107839 -6.07112e-19)
(1.50545 0.106488 -8.92873e-19)
(1.47724 0.103445 4.43745e-19)
(1.43904 0.099098 -4.80527e-19)
(1.40007 0.0947003 5.74407e-19)
(0.0629805 0.0123248 -1.60918e-19)
(0.419108 0.0861285 -8.2281e-19)
(0.842925 0.129209 3.86696e-19)
(1.17271 0.154369 8.79608e-19)
(1.36882 0.169143 -4.55401e-19)
(1.45695 0.175288 -3.84711e-19)
(1.47638 0.174834 -5.46667e-19)
(1.45903 0.170136 -1.8554e-19)
(1.42541 0.163173 -7.57184e-21)
(1.38723 0.156677 5.28197e-19)
(0.0247328 -0.00178723 2.59872e-19)
(0.30709 0.0746121 -1.08335e-18)
(0.699062 0.141791 1.7796e-18)
(1.04149 0.190369 -9.39848e-19)
(1.26934 0.221706 5.38348e-19)
(1.38914 0.237533 -6.11447e-19)
(1.43217 0.24126 6.27156e-19)
(1.4294 0.236907 4.68084e-19)
(1.4032 0.228087 7.65574e-19)
(1.3674 0.22054 -9.65135e-19)
(-0.00567297 -0.018514 -7.97483e-19)
(0.2082 0.0507545 1.36372e-18)
(0.55721 0.136458 1.99332e-20)
(0.89877 0.209688 -4.5894e-19)
(1.15111 0.261849 -2.315e-19)
(1.30151 0.292063 1.25647e-19)
(1.37055 0.303987 -9.90925e-19)
(1.3858 0.303154 5.81059e-19)
(1.37023 0.294836 -7.42685e-19)
(1.33826 0.288741 -1.93111e-19)
(-0.0288561 -0.0367897 1.35975e-18)
(0.125024 0.017963 -3.58558e-19)
(0.424621 0.115116 -6.44928e-19)
(0.751417 0.211581 1.6714e-18)
(1.01781 0.287158 -1.53623e-18)
(1.19457 0.335851 7.6393e-19)
(1.29015 0.359989 6.82777e-19)
(1.32656 0.36572 1.31996e-19)
(1.32536 0.359747 1.32417e-19)
(1.30192 0.356289 -1.11798e-19)
(-0.0456496 -0.055841 -1.30007e-18)
(0.058336 -0.0202463 1.0332e-18)
(0.307064 0.0813136 -8.70519e-19)
(0.607024 0.197099 1.0499e-18)
(0.87502 0.29622 -3.01057e-19)
(1.07067 0.365976 -9.0848e-19)
(1.19057 0.405856 2.75644e-19)
(1.24936 0.422025 -3.01004e-19)
(1.26601 0.42181 -2.84657e-19)
(1.2488 0.431969 -5.59542e-19)
(-0.0569186 -0.0750205 -1.60281e-18)
(0.00746428 -0.0604548 1.06455e-18)
(0.207798 0.0398465 -1.97721e-18)
(0.472337 0.16935 3.4075e-19)
(0.729309 0.289317 -1.25428e-18)
(0.933967 0.380196 -6.76019e-19)
(1.07351 0.437305 1.485e-18)
(1.15515 0.465285 -1.87419e-18)
(1.19555 0.469594 3.3395e-19)
(1.20795 0.475486 -3.35398e-19)
(-0.063431 -0.0935414 7.90258e-19)
(-0.0292558 -0.099272 2.74663e-19)
(0.127268 -0.00385623 -6.74861e-20)
(0.35173 0.133191 7.05364e-19)
(0.586687 0.268777 1.98829e-18)
(0.78921 0.377914 6.26731e-19)
(0.940607 0.451413 5.79114e-19)
(1.04086 0.491436 -2.01639e-19)
(1.10063 0.502684 -1.53078e-18)
(1.1343 0.505733 3.14261e-19)
(-0.0658019 -0.110185 -2.19546e-19)
(-0.0540974 -0.133176 5.52564e-19)
(0.0635408 -0.0443392 -1.44989e-19)
(0.246522 0.0944363 9.45111e-19)
(0.451349 0.238845 -2.10276e-18)
(0.640934 0.360954 1.41869e-19)
(0.794378 0.447981 -8.31896e-19)
(0.906107 0.499167 1.06145e-18)
(0.980249 0.518685 -3.04486e-19)
(1.03253 0.522664 -1.40215e-20)
(-0.0645402 -0.123121 -1.47584e-19)
(-0.0696252 -0.158547 -6.70628e-19)
(0.0132713 -0.0767632 1.55657e-18)
(0.155532 0.0585991 -7.9229e-19)
(0.325628 0.204447 7.41492e-20)
(0.493934 0.332592 2.35823e-19)
(0.640463 0.428344 -1.23803e-19)
(0.756548 0.488408 2.15112e-19)
(0.840956 0.516126 5.70704e-19)
(0.909307 0.523594 1.92848e-20)
(-0.0601918 -0.13 -3.14683e-19)
(-0.0784214 -0.172012 -2.79418e-19)
(-0.0271792 -0.0975445 -1.18622e-18)
(0.0763972 0.0296352 5.86609e-19)
(0.210504 0.169522 -1.1229e-18)
(0.352745 0.295908 2.58295e-19)
(0.485849 0.39401 2.64322e-19)
(0.600062 0.45899 -1.74402e-19)
(0.690553 0.49306 -7.51526e-20)
(0.771114 0.504657 -3.06778e-19)
(-0.0535196 -0.128366 2.2298e-19)
(-0.082841 -0.171024 -3.66717e-20)
(-0.0607673 -0.104787 9.90012e-21)
(0.00704918 0.00936436 -4.84508e-19)
(0.106549 0.136122 1.16361e-18)
(0.22134 0.252814 -1.62296e-19)
(0.33736 0.346068 -3.37653e-19)
(0.444954 0.41064 3.85388e-19)
(0.537568 0.447611 -8.89957e-20)
(0.625803 0.462244 3.50736e-19)
(-0.0456128 -0.11634 -3.83886e-20)
(-0.0847944 -0.154453 -1.83799e-19)
(-0.0891078 -0.0983857 -6.3378e-20)
(-0.053086 -0.00231915 -7.33805e-20)
(0.0152412 0.104594 -1.60676e-19)
(0.104009 0.204181 -4.22219e-19)
(0.202026 0.28549 4.62e-19)
(0.300284 0.343797 1.89752e-19)
(0.391957 0.379307 -6.84306e-20)
(0.483584 0.394685 -1.66869e-19)
(-0.0378387 -0.0933378 2.08722e-19)
(-0.0855968 -0.122991 3.55395e-20)
(-0.112273 -0.0798394 1.98188e-19)
(-0.102595 -0.0068113 -1.99451e-21)
(-0.0601465 0.0743468 1.65462e-19)
(0.00636133 0.150479 1.5044e-19)
(0.087935 0.2136 1.44681e-19)
(0.176372 0.260078 -3.84614e-19)
(0.265315 0.289608 -4.77642e-20)
(0.35712 0.303014 6.54365e-20)
(-0.0316307 -0.060553 -1.00517e-19)
(-0.0859553 -0.0792247 -1.12016e-19)
(-0.129126 -0.0518686 -5.14519e-20)
(-0.13852 -0.00612425 2.32873e-19)
(-0.114794 0.044597 1.04628e-19)
(-0.0646947 0.092373 1.66162e-20)
(0.0042437 0.132394 -3.73546e-20)
(0.0845407 0.162397 -1.3177e-20)
(0.170421 0.181967 9.92305e-20)
(0.26086 0.191029 -4.83668e-20)
(-0.0281863 -0.0209928 4.92721e-20)
(-0.0861186 -0.0273582 5.07949e-20)
(-0.1381 -0.0179779 -3.97791e-20)
(-0.157561 -0.00239702 -3.42047e-20)
(-0.14372 0.0148559 -3.24386e-20)
(-0.102378 0.0311412 -3.66634e-20)
(-0.040345 0.0448575 7.12198e-21)
(0.0353351 0.0552365 3.44825e-20)
(0.119228 0.0620929 -1.96998e-20)
(0.208462 0.065289 2.20687e-20)
(0.703201 -0.025079 -6.4594e-22)
(0.894867 -0.00498107 -6.81383e-22)
(0.957552 -0.00171642 -1.45431e-23)
(0.980655 -0.000677917 4.92719e-23)
(0.990427 -0.000284333 7.2692e-24)
(0.994879 -0.000136633 -7.3289e-24)
(0.997162 -6.97696e-05 -9.93845e-24)
(0.99839 -3.7528e-05 3.14577e-24)
(0.999038 -2.22987e-05 -2.38465e-25)
(0.999447 -8.46132e-06 2.11717e-24)
(0.707341 -0.0740197 1.01761e-21)
(0.896118 -0.0149149 -3.36346e-23)
(0.957693 -0.00516047 7.0805e-22)
(0.980694 -0.00203399 -7.82939e-22)
(0.990441 -0.000854787 -3.92795e-23)
(0.994884 -0.00041012 3.58831e-23)
(0.997165 -0.000210874 -3.87651e-23)
(0.998392 -0.000112355 -9.3681e-24)
(0.999039 -6.41661e-05 -1.90996e-23)
(0.999448 -2.45986e-05 -1.82226e-24)
(0.717459 -0.119483 -3.94942e-21)
(0.898604 -0.0247333 2.1911e-21)
(0.957981 -0.00862206 -7.9297e-22)
(0.980775 -0.00339027 6.69814e-22)
(0.99047 -0.00142601 -4.37179e-23)
(0.994896 -0.000683785 2.99579e-23)
(0.997172 -0.000352087 1.39196e-23)
(0.998397 -0.000187121 -3.21824e-24)
(0.999042 -0.000105964 1.31949e-23)
(0.99945 -4.07422e-05 -2.45582e-24)
(0.735523 -0.159807 1.67152e-21)
(0.902252 -0.0343629 2.64055e-21)
(0.958421 -0.0121083 1.32954e-21)
(0.980897 -0.00474936 -6.12823e-22)
(0.990514 -0.00199941 6.57297e-22)
(0.994913 -0.000957971 -2.02702e-22)
(0.997181 -0.000493258 1.12022e-23)
(0.998403 -0.000261697 -1.50649e-23)
(0.999047 -0.0001477 1.54744e-23)
(0.999453 -5.686e-05 1.06323e-24)
(0.762097 -0.193838 2.54814e-21)
(0.906915 -0.0437152 -3.96943e-21)
(0.959017 -0.0156176 -1.2019e-21)
(0.981061 -0.00611439 1.26854e-21)
(0.990571 -0.00257608 -5.01069e-22)
(0.994936 -0.00123293 -1.56289e-22)
(0.997194 -0.000634417 -1.16861e-22)
(0.998411 -0.000336247 -2.49968e-23)
(0.999053 -0.000189439 -3.66585e-23)
(0.999456 -7.29168e-05 -4.54528e-24)
(0.796263 -0.220311 -1.21166e-20)
(0.912432 -0.0525093 -3.44611e-22)
(0.959774 -0.0190859 -1.93536e-22)
(0.98127 -0.00747192 -1.43341e-21)
(0.990644 -0.00315136 2.99908e-22)
(0.994966 -0.00150646 2.02497e-22)
(0.99721 -0.000774716 1.24759e-22)
(0.998421 -0.000410318 2.951e-23)
(0.99906 -0.000230865 1.56919e-23)
(0.999461 -8.88431e-05 6.80373e-24)
(0.836408 -0.238388 2.39877e-20)
(0.918729 -0.0604005 3.0109e-21)
(0.960715 -0.0224102 6.78044e-22)
(0.981531 -0.00879916 7.07521e-22)
(0.990734 -0.00371783 -3.0406e-22)
(0.995001 -0.00177571 8.5621e-23)
(0.997229 -0.000912999 -1.21178e-22)
(0.998434 -0.000483361 -3.56604e-23)
(0.999069 -0.000271686 5.84227e-24)
(0.999467 -0.000104572 2.31732e-24)
(0.880614 -0.252092 -6.97366e-21)
(0.925889 -0.0683371 -7.324e-22)
(0.961911 -0.0258356 -2.84225e-21)
(0.981863 -0.0101752 1.77593e-21)
(0.990847 -0.00430316 -5.2491e-22)
(0.995045 -0.00205197 3.82145e-22)
(0.997252 -0.0010541 1.73603e-22)
(0.998448 -0.000557415 5.08948e-23)
(0.999079 -0.000312744 4.15777e-23)
(0.999473 -0.000120277 2.8382e-24)
(0.926234 -0.271917 -1.88317e-20)
(0.934397 -0.0788357 1.70263e-22)
(0.963573 -0.0300208 2.06247e-21)
(0.982332 -0.0117689 -2.08692e-21)
(0.991005 -0.00495981 6.44962e-22)
(0.995105 -0.00235637 -2.91674e-22)
(0.99728 -0.00120705 -1.95619e-22)
(0.998465 -0.000636387 -1.63083e-23)
(0.999091 -0.000355745 -2.09461e-23)