1.45 	0 	0 	0.0765569
2.35 	0 	0 	0.0337066
