1.45 	0 	0 	-0.0829861
2.35 	0 	0 	0.0268726
