1.45 	0 	0 	0.379415 	-0.0382176 	6.43445e-22
2.35 	0 	0 	0.778589 	-0.00956059 	-7.33831e-22
