1.45 	0 	0 	0.826136 	-0.0130021 	-7.12512e-22
2.35 	0 	0 	0.930929 	-0.00336743 	-4.077e-22
