1.45 	0 	0 	0.159735 	-0.0332328 	2.52656e-21
2.35 	0 	0 	0.600327 	-0.0150853 	-1.40349e-21
