1.45 	0 	0 	0.000626812 	-0.0208868 	4.0027e-21
2.35 	0 	0 	0.332206 	-0.0187255 	-1.50103e-21
