1.45 	0 	0 	-0.0233317 	-0.018343 	4.20339e-21
2.35 	0 	0 	0.271724 	-0.0187571 	-1.28478e-21
