1.45 	0 	0 	-0.316957
2.35 	0 	0 	-0.00542888
