1.45 	0 	0 	0.23462 	-0.0363647 	1.82899e-21
2.35 	0 	0 	0.676647 	-0.0130004 	-1.12295e-21
