1.45 	0 	0 	0.0395095
2.35 	0 	0 	0.0291631
