1.45 	0 	0 	0.490663 	-0.0362587 	-3.76398e-23
2.35 	0 	0 	0.830431 	-0.00758552 	-6.3468e-22
