1.45 	0 	0 	0.0464655
2.35 	0 	0 	0.0114083
