1.45 	0 	0 	0.418169 	-0.0378514 	3.79693e-22
2.35 	0 	0 	0.798713 	-0.0088075 	-6.80666e-22
