1.45 	0 	0 	0.0375994
2.35 	0 	0 	0.0222599
