1.45 	0 	0 	-0.0911403 	-0.0105562 	4.70588e-21
2.35 	0 	0 	0.0745417 	-0.0170421 	4.37578e-23
