1.45 	0 	0 	0.188447 	-0.0346227 	2.255e-21
2.35 	0 	0 	0.632103 	-0.0142718 	-1.29489e-21
