1.45 	0 	0 	-0.275634
2.35 	0 	0 	0.0205532
