1.45 	0 	0 	0.0441535
2.35 	0 	0 	0.0264896
