1.45 	0 	0 	0.0474413
2.35 	0 	0 	0.0110123
