1.45 	0 	0 	-0.153211
2.35 	0 	0 	0.0284686
