1.45 	0 	0 	-0.0576092 	-0.0144529 	4.47244e-21
2.35 	0 	0 	0.174834 	-0.0182456 	-7.50839e-22
