1.45 	0 	0 	-0.346554
2.35 	0 	0 	-0.0743756
