1.45 	0 	0 	-0.114655 	-0.00795228 	4.8491e-21
2.35 	0 	0 	0.0074267 	-0.0158974 	7.1619e-22
