1.45 	0 	0 	-0.0998492 	-0.00957126 	4.76081e-21
2.35 	0 	0 	0.0490822 	-0.0166373 	2.85294e-22
