1.45 	0 	0 	0.04381 	-0.0250309 	3.62137e-21
2.35 	0 	0 	0.425381 	-0.0181179 	-1.65671e-21
