1.45 	0 	0 	0.61325 	-0.0310109 	-4.98943e-22
2.35 	0 	0 	0.871099 	-0.00597036 	-6.61492e-22
