1.45 	0 	0 	-0.125249
2.35 	0 	0 	0.0278099
