1.45 	0 	0 	0.0695813
2.35 	0 	0 	-0.00147624
