1.45 	0 	0 	0.0357786
2.35 	0 	0 	0.0288888
