1.45 	0 	0 	-0.294504
2.35 	0 	0 	0.0127692
