1.45 	0 	0 	0.840521 	-0.0113407 	-7.95764e-22
2.35 	0 	0 	0.938426 	-0.00310636 	-2.59333e-22
