1.45 	0 	0 	0.180372 	-0.0342562 	2.33097e-21
2.35 	0 	0 	0.623514 	-0.0144995 	-1.32563e-21
