1.45 	0 	0 	-0.042817 	-0.0161603 	4.35945e-21
2.35 	0 	0 	0.217926 	-0.0185559 	-1.01664e-21
