1.45 	0 	0 	-0.267353
2.35 	0 	0 	0.0227679
