1.45 	0 	0 	-0.332147
2.35 	0 	0 	-0.0296789
