1.45 	0 	0 	0.852201 	-0.0111521 	-1.01826e-21
2.35 	0 	0 	0.948 	-0.00320396 	2.29037e-22
