1.45 	0 	0 	0.28595 	-0.0376262 	1.37805e-21
2.35 	0 	0 	0.718451 	-0.0116739 	-9.52828e-22
