1.45 	0 	0 	-0.0917335 	-0.0104884 	4.7097e-21
2.35 	0 	0 	0.0727902 	-0.0170155 	5.9851e-23
