1.45 	0 	0 	-0.0147887
2.35 	0 	0 	0.026757
