1.45 	0 	0 	-0.196755
2.35 	0 	0 	0.0289065
