1.45 	0 	0 	0.0589067
2.35 	0 	0 	0.00586263
