1.45 	0 	0 	-0.139472
2.35 	0 	0 	0.0281577
