1.45 	0 	0 	-0.0992806 	-0.00963492 	4.7573e-21
2.35 	0 	0 	0.0507261 	-0.0166646 	2.69203e-22
