1.45 	0 	0 	0.836209 	-0.0118081 	-7.59399e-22
2.35 	0 	0 	0.935883 	-0.00318311 	-3.1615e-22
