1.45 	0 	0 	-0.346137
2.35 	0 	0 	-0.0726138
