1.45 	0 	0 	0.0973206 	-0.0293469 	3.12245e-21
2.35 	0 	0 	0.517236 	-0.0168338 	-1.6054e-21
