1.45 	0 	0 	0.753682 	-0.0208101 	-6.68311e-22
2.35 	0 	0 	0.90779 	-0.00440871 	-6.47048e-22
