1.45 	0 	0 	0.0720158
2.35 	0 	0 	0.0345443
