1.45 	0 	0 	0.703201 	-0.025079 	-6.4594e-22
2.35 	0 	0 	0.894867 	-0.00498107 	-6.81383e-22
