1.45 	0 	0 	0.0705357
2.35 	0 	0 	0.0342976
