1.45 	0 	0 	0.0409097
2.35 	0 	0 	0.0247563
