1.45 	0 	0 	0.0778238
2.35 	0 	0 	0.0352308
