1.45 	0 	0 	0.823459 	-0.0133254 	-7.05146e-22
2.35 	0 	0 	0.929769 	-0.00341496 	-4.26551e-22
