1.45 	0 	0 	-0.0929143 	-0.0103539 	4.71726e-21
2.35 	0 	0 	0.0693106 	-0.016962 	9.20497e-23
