/*--------------------------------*- C++ -*----------------------------------*\
  =========                 |
  \\      /  F ield         | OpenFOAM: The Open Source CFD Toolbox
   \\    /   O peration     | Website:  https://openfoam.org
    \\  /    A nd           | Version:  6.0
     \\/     M anipulation  |
\*---------------------------------------------------------------------------*/
FoamFile
{
    version     2.0;
    format      ascii;
    class       volScalarField;
    location    "5";
    object      p;
}
// * * * * * * * * * * * * * * * * * * * * * * * * * * * * * * * * * * * * * //

dimensions      [0 2 -2 0 0 0 0];

internalField   nonuniform List<scalar> 
2000
(
-0.393491
-0.398591
-0.401691
-0.40442
-0.40725
-0.409872
-0.412075
-0.414013
-0.415346
-0.413147
-0.396127
-0.400753
-0.403663
-0.406322
-0.409138
-0.41179
-0.414033
-0.415983
-0.417383
-0.41542
-0.400915
-0.404663
-0.407176
-0.409645
-0.412366
-0.415004
-0.417256
-0.419161
-0.420598
-0.41906
-0.407051
-0.40964
-0.411541
-0.41362
-0.416059
-0.418522
-0.420651
-0.422361
-0.423651
-0.422584
-0.41367
-0.414987
-0.416059
-0.417481
-0.419356
-0.421378
-0.423154
-0.424444
-0.42525
-0.424426
-0.420107
-0.4202
-0.420257
-0.420732
-0.421725
-0.422993
-0.424136
-0.424748
-0.424628
-0.423413
-0.426071
-0.425098
-0.424013
-0.423298
-0.423144
-0.423398
-0.423657
-0.423357
-0.421886
-0.419147
-0.431717
-0.429848
-0.427559
-0.425521
-0.424088
-0.423189
-0.422393
-0.420976
-0.417918
-0.412193
-0.437601
-0.434912
-0.431402
-0.42803
-0.42531
-0.423202
-0.42115
-0.418197
-0.4132
-0.40327
-0.444539
-0.44093
-0.436186
-0.431536
-0.427558
-0.424122
-0.420444
-0.415156
-0.407009
-0.392914
-0.453395
-0.448563
-0.442513
-0.436604
-0.43129
-0.426201
-0.420316
-0.412051
-0.400392
-0.385696
-0.464877
-0.458356
-0.45082
-0.443528
-0.436562
-0.429197
-0.420241
-0.408187
-0.393048
-0.373038
-0.479468
-0.470693
-0.46138
-0.452386
-0.443162
-0.432634
-0.419686
-0.403402
-0.384119
-0.360595
-0.497453
-0.485857
-0.47438
-0.463125
-0.450705
-0.435935
-0.418225
-0.397542
-0.374718
-0.349743
-0.518949
-0.50402
-0.489889
-0.475485
-0.45858
-0.438438
-0.415455
-0.390483
-0.364793
-0.338586
-0.543816
-0.525103
-0.507654
-0.488766
-0.465848
-0.439379
-0.410955
-0.382081
-0.354062
-0.327021
-0.571454
-0.548551
-0.526817
-0.501657
-0.47125
-0.437917
-0.404265
-0.371982
-0.342025
-0.314065
-0.600553
-0.573151
-0.545694
-0.512284
-0.473361
-0.43319
-0.394853
-0.359748
-0.328194
-0.299554
-0.628933
-0.596911
-0.561819
-0.518495
-0.470778
-0.424354
-0.382116
-0.344799
-0.312
-0.282912
-0.653599
-0.617006
-0.572318
-0.518212
-0.462244
-0.4106
-0.365393
-0.326513
-0.292888
-0.263781
-0.671111
-0.629983
-0.574378
-0.509679
-0.446704
-0.391165
-0.344018
-0.304271
-0.270332
-0.24171
-0.678078
-0.632309
-0.565586
-0.491542
-0.42331
-0.365378
-0.317389
-0.277542
-0.243915
-0.21637
-0.67154
-0.620993
-0.544139
-0.462859
-0.391436
-0.332697
-0.285015
-0.245921
-0.213338
-0.187507
-0.649144
-0.593948
-0.508945
-0.423103
-0.350707
-0.292772
-0.246576
-0.209153
-0.178425
-0.154951
-0.609236
-0.550071
-0.459618
-0.372181
-0.301069
-0.245538
-0.202006
-0.167212
-0.139212
-0.11879
-0.550966
-0.489168
-0.396402
-0.310393
-0.24279
-0.19126
-0.151601
-0.120458
-0.0961739
-0.0796778
-0.474408
-0.41187
-0.320054
-0.238309
-0.176282
-0.13033
-0.0958805
-0.0696965
-0.0504918
-0.0390832
-0.380664
-0.31961
-0.231837
-0.156732
-0.101886
-0.0627676
-0.0348373
-0.0153275
-0.00318748
0.00188191
-0.27188
-0.21464
-0.13367
-0.0669917
-0.0201828
0.0117441
0.0327423
0.0445284
0.0480779
0.046251
-0.15113
-0.099956
-0.0282271
0.0286014
0.0669518
0.092107
0.107283
0.11311
0.111052
0.1061
-0.0221831
0.0209369
0.0813536
0.126996
0.156089
0.174102
0.183923
0.186222
0.185306
0.197544
0.110743
0.14428
0.191912
0.225398
0.244266
0.253613
0.256003
0.253526
0.253325
0.266601
0.243192
0.266176
0.300245
0.321284
0.329905
0.330831
0.326351
0.318574
0.313547
0.319502
0.370717
0.382757
0.40307
0.411658
0.410009
0.402555
0.391466
0.378663
0.368789
0.367715
0.489071
0.490422
0.497567
0.494422
0.483135
0.467744
0.450133
0.43192
0.416861
0.409547
0.594302
0.585763
0.580902
0.567188
0.547289
0.524879
0.501565
0.478602
0.458812
0.445623
0.682958
0.66585
0.650704
0.627995
0.600764
0.572362
0.54418
0.517177
0.493349
0.475152
0.752117
0.728192
0.70494
0.675189
0.642238
0.609171
0.577203
0.547028
0.51995
0.497724
0.799517
0.770858
0.742007
0.707411
0.670526
0.63426
0.599703
0.567351
0.538006
0.512971
0.823611
0.792526
0.76082
0.723758
0.684874
0.64698
0.611107
0.577644
0.547129
0.520654
0.82361
0.792526
0.76082
0.723758
0.684873
0.64698
0.611107
0.577644
0.547129
0.520654
0.799516
0.770856
0.742006
0.70741
0.670526
0.634259
0.599702
0.567351
0.538006
0.51297
0.752115
0.728191
0.704938
0.675188
0.642236
0.60917
0.577201
0.547027
0.519949
0.497723
0.682955
0.665847
0.650702
0.627993
0.600762
0.57236
0.544178
0.517176
0.493348
0.475151
0.594299
0.58576
0.580899
0.567185
0.547286
0.524877
0.501563
0.4786
0.45881
0.445621
0.489067
0.490418
0.497563
0.494419
0.483132
0.467741
0.45013
0.431918
0.416859
0.409545
0.370712
0.382753
0.403066
0.411654
0.410005
0.402551
0.391463
0.378661
0.368786
0.367713
0.243186
0.26617
0.30024
0.321279
0.329901
0.330827
0.326348
0.318571
0.313544
0.319499
0.110736
0.144274
0.191907
0.225393
0.244262
0.253608
0.255999
0.253523
0.253321
0.266598
-0.0221908
0.0209298
0.0813472
0.12699
0.156084
0.174097
0.183918
0.186217
0.185302
0.19754
-0.151138
-0.0999639
-0.0282343
0.028595
0.0669458
0.0921015
0.107278
0.113105
0.111048
0.106096
-0.271889
-0.214649
-0.133678
-0.0669988
-0.0201894
0.0117381
0.0327366
0.0445231
0.0480728
0.0462461
-0.380674
-0.31962
-0.231845
-0.15674
-0.101893
-0.0627741
-0.0348434
-0.0153332
-0.00319285
0.00187677
-0.474419
-0.41188
-0.320063
-0.238318
-0.17629
-0.130337
-0.095887
-0.0697026
-0.0504975
-0.0390886
-0.550978
-0.489179
-0.396412
-0.310402
-0.242798
-0.191267
-0.151608
-0.120465
-0.0961799
-0.0796834
-0.609249
-0.550083
-0.459629
-0.372191
-0.301078
-0.245546
-0.202013
-0.167219
-0.139218
-0.118796
-0.649158
-0.593961
-0.508956
-0.423114
-0.350716
-0.292781
-0.246584
-0.20916
-0.178432
-0.154957
-0.671555
-0.621007
-0.544152
-0.46287
-0.391445
-0.332706
-0.285023
-0.245928
-0.213344
-0.187513
-0.678093
-0.632324
-0.565599
-0.491554
-0.42332
-0.365388
-0.317397
-0.27755
-0.243922
-0.216377
-0.671127
-0.629998
-0.574392
-0.509691
-0.446714
-0.391175
-0.344027
-0.304278
-0.270339
-0.241717
-0.653615
-0.617021
-0.572332
-0.518225
-0.462255
-0.41061
-0.365402
-0.326521
-0.292895
-0.263787
-0.628949
-0.596926
-0.561833
-0.518508
-0.47079
-0.424365
-0.382125
-0.344807
-0.312007
-0.282918
-0.600569
-0.573167
-0.545709
-0.512297
-0.473374
-0.433201
-0.394862
-0.359757
-0.328201
-0.29956
-0.571469
-0.548566
-0.526832
-0.50167
-0.471262
-0.437928
-0.404275
-0.371991
-0.342032
-0.314071
-0.543831
-0.525117
-0.507668
-0.48878
-0.46586
-0.43939
-0.410965
-0.38209
-0.354069
-0.327027
-0.518963
-0.504034
-0.489903
-0.475499
-0.458593
-0.43845
-0.415466
-0.390492
-0.3648
-0.338592
-0.497467
-0.48587
-0.474394
-0.463139
-0.450718
-0.435947
-0.418236
-0.397552
-0.374726
-0.349749
-0.479482
-0.470706
-0.461393
-0.452399
-0.443175
-0.432647
-0.419698
-0.403412
-0.384128
-0.360601
-0.464891
-0.458369
-0.450833
-0.443541
-0.436575
-0.42921
-0.420254
-0.408199
-0.393057
-0.373044
-0.453408
-0.448576
-0.442526
-0.436617
-0.431303
-0.426215
-0.420329
-0.412064
-0.400403
-0.385703
-0.444552
-0.440942
-0.436198
-0.431549
-0.427572
-0.424136
-0.420459
-0.41517
-0.407021
-0.392924
-0.437613
-0.434924
-0.431415
-0.428043
-0.425324
-0.423216
-0.421165
-0.418211
-0.413213
-0.403281
-0.431728
-0.429859
-0.427571
-0.425533
-0.4241
-0.423203
-0.422406
-0.420989
-0.41793
-0.412202
-0.426081
-0.425107
-0.424023
-0.423309
-0.423156
-0.42341
-0.42367
-0.423369
-0.421897
-0.419155
-0.420114
-0.420207
-0.420266
-0.420741
-0.421735
-0.423004
-0.424147
-0.424758
-0.424636
-0.423418
-0.413676
-0.414993
-0.416066
-0.417489
-0.419364
-0.421386
-0.423162
-0.424452
-0.425256
-0.42443
-0.407055
-0.409645
-0.411546
-0.413626
-0.416065
-0.418528
-0.420656
-0.422366
-0.423655
-0.422586
-0.400918
-0.404666
-0.40718
-0.409649
-0.41237
-0.415008
-0.41726
-0.419164
-0.4206
-0.419061
-0.396128
-0.400755
-0.403665
-0.406324
-0.409141
-0.411793
-0.414035
-0.415984
-0.417383
-0.41542
-0.393491
-0.398591
-0.401692
-0.404421
-0.407251
-0.409872
-0.412076
-0.414013
-0.415347
-0.413147
-0.346554
-0.0743756
0.00712786
0.0444334
0.0275423
0.013959
0.00795298
0.00454587
0.00221481
0.000635839
-0.349613
-0.0762849
0.00615706
0.0439209
0.0273779
0.013888
0.00792606
0.00453763
0.00221146
0.000634459
-0.355364
-0.0798294
0.00433182
0.0429284
0.0270536
0.013747
0.00787252
0.00452122
0.00220478
0.000631713
-0.363209
-0.0846976
0.00183695
0.0415136
0.0265777
0.0135384
0.0077929
0.00449679
0.00219482
0.000627629
-0.372498
-0.0907201
-0.00110634
0.0397576
0.0259628
0.0132647
0.0076877
0.00446445
0.00218161
0.000622241
-0.382568
-0.097761
-0.0042527
0.0377643
0.0252276
0.012929
0.00755714
0.0044241
0.0021651
0.000615563
-0.393145
-0.105897
-0.00756848
0.0355859
0.0243893
0.0125368
0.0074025
0.00437599
0.00214531
0.000607616
-0.404682
-0.116502
-0.0117411
0.033084
0.023453
0.0121018
0.00723014
0.00432281
0.00212338
0.000598736
-0.414918
-0.131355
-0.0173894
0.030225
0.0224495
0.0116355
0.00704445
0.0042676
0.00210091
0.000589485
-0.411998
-0.143683
-0.0210794
0.0282086
0.0214886
0.0110706
0.00680189
0.00419184
0.00207031
0.000577675
-0.360124
-0.153167
-0.019749
0.026475
0.0186911
0.00862656
0.0056097
0.00377484
0.00189782
0.000514376
-0.256412
-0.141129
-0.0226356
0.0186341
0.0108132
0.00291037
0.00253716
0.00244658
0.00134321
0.000334161
-0.180414
-0.123148
-0.0344093
0.00674154
0.00516935
-0.000151601
0.000502012
0.00135225
0.000869884
0.000208387
-0.128918
-0.103209
-0.0420743
-0.00331518
0.000799799
-0.00245406
-0.00144238
0.000106013
0.000302526
5.67346e-05
-0.0965755
-0.0866606
-0.0456535
-0.011434
-0.00307754
-0.00413992
-0.00292086
-0.000983116
-0.00022463
-7.4185e-05
-0.0764415
-0.073409
-0.0461354
-0.0175894
-0.00668253
-0.00554505
-0.00404765
-0.00191678
-0.000716112
-0.000197775
-0.0634084
-0.0634436
-0.0453424
-0.0220835
-0.00983826
-0.00672149
-0.00485857
-0.00265227
-0.00113587
-0.000304446
-0.0553036
-0.0565906
-0.0441237
-0.0250089
-0.0122808
-0.00764986
-0.0054141
-0.00318822
-0.00146517
-0.000390517
-0.0506025
-0.0522869
-0.0430219
-0.0267252
-0.013947
-0.00831053
-0.00576502
-0.00353587
-0.00169103
-0.000451097
-0.0484225
-0.0502073
-0.0424045
-0.0275244
-0.0147932
-0.00865321
-0.00593329
-0.00370578
-0.00180561
-0.000482237
-0.163297
-0.179216
-0.194122
-0.208766
-0.222911
-0.237851
-0.252798
-0.270568
-0.289603
-0.317017
-0.107954
-0.117245
-0.125474
-0.132801
-0.138886
-0.143832
-0.147243
-0.150182
-0.154251
-0.165277
-0.0716074
-0.0769395
-0.0817046
-0.0861319
-0.0904758
-0.0950893
-0.100396
-0.106733
-0.114361
-0.123151
-0.0559217
-0.0602462
-0.0644761
-0.068693
-0.072964
-0.0772152
-0.0813939
-0.0853023
-0.0891807
-0.0934927
-0.0475435
-0.0506555
-0.05361
-0.0563932
-0.0590146
-0.0614557
-0.0637937
-0.0660827
-0.0686082
-0.0716313
-0.0418394
-0.0440446
-0.0461529
-0.048177
-0.0501478
-0.0520802
-0.0540155
-0.05595
-0.0579596
-0.0600971
-0.0386515
-0.040345
-0.041984
-0.0435704
-0.0451107
-0.0466004
-0.0480485
-0.0494477
-0.0508459
-0.0522918
-0.036778
-0.0381001
-0.0393816
-0.0406206
-0.0418191
-0.0429751
-0.0440954
-0.0451776
-0.0462467
-0.0473195
-0.0356941
-0.0367911
-0.03786
-0.0388983
-0.0399056
-0.0408792
-0.0418211
-0.042727
-0.0436072
-0.044462
-0.0352245
-0.0362118
-0.0371756
-0.0381132
-0.0390234
-0.0399036
-0.0407547
-0.0415727
-0.0423632
-0.0431199
0.07866
0.0408678
0.0107667
-0.012382
-0.0350204
-0.0593525
-0.0838109
-0.106702
-0.127413
-0.146205
0.0488305
0.0305774
0.00705591
-0.0133977
-0.0295278
-0.0440071
-0.0584441
-0.0726249
-0.0857753
-0.0975547
0.0241252
0.0142261
-0.000362401
-0.0146746
-0.0261039
-0.035171
-0.0432948
-0.0511653
-0.0586826
-0.0655454
0.00660958
-0.000190027
-0.00927511
-0.0181654
-0.0255634
-0.0315401
-0.036765
-0.0417558
-0.0466574
-0.0513996
-0.00563294
-0.01036
-0.0161303
-0.0216246
-0.0263173
-0.0303128
-0.0339361
-0.0374342
-0.0408907
-0.044277
-0.0135069
-0.0165346
-0.020161
-0.0236817
-0.0268069
-0.0295825
-0.0321659
-0.034671
-0.0371318
-0.0395301
-0.0185147
-0.0205106
-0.022876
-0.0252465
-0.0274456
-0.0294718
-0.0313926
-0.0332629
-0.0351015
-0.0369014
-0.021824
-0.0232754
-0.0249208
-0.0265834
-0.0281772
-0.0296954
-0.0311636
-0.0326041
-0.0340234
-0.0354172
-0.0238734
-0.0250141
-0.0262432
-0.0274866
-0.0287103
-0.0299106
-0.0310944
-0.0322668
-0.0334273
-0.0345714
-0.0248323
-0.0258274
-0.0268703
-0.0279299
-0.0289909
-0.0300488
-0.0311027
-0.032151
-0.0331902
-0.034216
0.21332
0.213576
0.21408
0.214221
0.21341
0.210508
0.204113
0.191124
0.167279
0.12527
0.149033
0.147866
0.145161
0.140889
0.134588
0.125928
0.114162
0.0994611
0.081786
0.0631632
0.0953085
0.0938757
0.0907749
0.0861716
0.0800835
0.0726893
0.0639387
0.0541855
0.0434215
0.0322857
0.0562027
0.0551683
0.0530121
0.0498556
0.0457509
0.0408591
0.0351214
0.0286546
0.0212441
0.0131098
0.0296432
0.0290025
0.0276738
0.0256678
0.0229541
0.0195877
0.015516
0.0108141
0.00537919
-0.000645183
0.0117305
0.0112954
0.0103839
0.00897024
0.00701148
0.0045302
0.00151597
-0.00195271
-0.00587747
-0.0101094
-0.000379758
-0.000708078
-0.00139326
-0.00245216
-0.00390558
-0.00573237
-0.0079225
-0.0104155
-0.0131941
-0.0161587
-0.00831358
-0.00856607
-0.00908565
-0.00988132
-0.0109612
-0.0123102
-0.0139185
-0.015752
-0.0178011
-0.0200181
-0.0130673
-0.0132673
-0.0136753
-0.0143005
-0.0151496
-0.0162149
-0.017489
-0.0189514
-0.0205925
-0.0223862
-0.015284
-0.0154591
-0.0158157
-0.0163642
-0.0171112
-0.0180521
-0.019178
-0.0204718
-0.0219212
-0.0235074
0.316241
0.319469
0.326166
0.336311
0.350166
0.367825
0.389972
0.416687
0.449102
0.486856
0.314353
0.317561
0.324179
0.334138
0.34772
0.365005
0.386682
0.412763
0.444395
0.480973
0.310656
0.313822
0.320286
0.329882
0.342934
0.359484
0.380234
0.405059
0.435134
0.469341
0.305297
0.308399
0.314642
0.323715
0.335999
0.351477
0.370863
0.393815
0.421541
0.452127
0.29848
0.301498
0.307458
0.31587
0.32718
0.341277
0.358888
0.379355
0.403913
0.429552
0.290443
0.293359
0.298991
0.306633
0.316792
0.329232
0.344682
0.362072
0.382624
0.401927
0.281434
0.284237
0.289521
0.296325
0.30521
0.315763
0.328681
0.342403
0.358101
0.369557
0.271689
0.27437
0.279316
0.285278
0.292853
0.301392
0.311487
0.320932
0.330816
0.332934
0.261433
0.263933
0.268543
0.273698
0.280017
0.286548
0.293799
0.298672
0.301397
0.292893
0.2509
0.253061
0.257139
0.261419
0.266451
0.270996
0.275574
0.276395
0.272535
0.24954
0.250898
0.25306
0.257138
0.261417
0.26645
0.270994
0.275572
0.276393
0.272533
0.249537
0.261431
0.263932
0.268542
0.273696
0.280015
0.286547
0.293797
0.29867
0.301395
0.292891
0.271688
0.274369
0.279315
0.285277
0.292851
0.30139
0.311486
0.32093
0.330814
0.332932
0.281433
0.284236
0.28952
0.296324
0.305209
0.315762
0.328679
0.342401
0.3581
0.369555
0.290442
0.293358
0.29899
0.306632
0.316791
0.32923
0.344681
0.362071
0.382623
0.401925
0.298479
0.301497
0.307458
0.315869
0.327179
0.341276
0.358887
0.379354
0.403912
0.429551
0.305296
0.308399
0.314641
0.323714
0.335999
0.351476
0.370862
0.393814
0.42154
0.452126
0.310655
0.313821
0.320286
0.329881
0.342933
0.359483
0.380233
0.405058
0.435133
0.469341
0.314353
0.31756
0.324179
0.334138
0.34772
0.365005
0.386682
0.412763
0.444395
0.480972
0.316241
0.319469
0.326166
0.336311
0.350166
0.367825
0.389972
0.416687
0.449102
0.486856
-0.0152854
-0.0154605
-0.0158171
-0.0163656
-0.0171126
-0.0180534
-0.0191793
-0.0204732
-0.0219225
-0.0235087
-0.0130687
-0.0132687
-0.0136767
-0.0143019
-0.0151509
-0.0162163
-0.0174903
-0.0189527
-0.0205938
-0.0223875
-0.00831506
-0.00856755
-0.00908712
-0.00988279
-0.0109627
-0.0123116
-0.0139199
-0.0157534
-0.0178025
-0.0200195
-0.000381331
-0.000709649
-0.00139483
-0.00245372
-0.00390713
-0.00573392
-0.00792404
-0.0104171
-0.0131956
-0.0161602
0.0117288
0.0112937
0.0103822
0.00896857
0.0070098
0.00452853
0.00151431
-0.00195435
-0.00587908
-0.010111
0.0296414
0.0290007
0.0276721
0.025666
0.0229523
0.0195858
0.0155142
0.0108123
0.00537737
-0.000646984
0.0562008
0.0551664
0.0530102
0.0498537
0.045749
0.0408571
0.0351194
0.0286525
0.021242
0.0131077
0.0953066
0.0938737
0.0907729
0.0861696
0.0800815
0.0726873
0.0639366
0.0541834
0.0434193
0.0322834
0.149031
0.147864
0.14516
0.140887
0.134586
0.125926
0.11416
0.0994587
0.0817835
0.0631604
0.213318
0.213574
0.214079
0.214219
0.213409
0.210506
0.204111
0.191121
0.167276
0.125267
-0.0248336
-0.0258286
-0.0268715
-0.0279311
-0.028992
-0.0300499
-0.0311039
-0.0321521
-0.0331913
-0.0342172
-0.0238747
-0.0250154
-0.0262445
-0.0274879
-0.0287116
-0.0299118
-0.0310957
-0.0322681
-0.0334285
-0.0345726
-0.0218253
-0.0232767
-0.024922
-0.0265847
-0.0281785
-0.0296967
-0.0311649
-0.0326053
-0.0340247
-0.0354184
-0.0185162
-0.020512
-0.0228774
-0.0252479
-0.027447
-0.0294732
-0.031394
-0.0332643
-0.0351028
-0.0369028
-0.0135085
-0.0165362
-0.0201625
-0.0236833
-0.0268085
-0.0295841
-0.0321674
-0.0346726
-0.0371334
-0.0395316
-0.00563472
-0.0103618
-0.0161321
-0.0216264
-0.0263191
-0.0303145
-0.0339378
-0.0374359
-0.0408923
-0.0442786
0.00660746
-0.000192164
-0.00927725
-0.0181675
-0.0255655
-0.0315422
-0.036767
-0.0417578
-0.0466594
-0.0514016
0.0241227
0.0142235
-0.000365013
-0.0146771
-0.0261063
-0.0351734
-0.0432972
-0.0511676
-0.0586849
-0.0655477
0.0488274
0.0305741
0.00705271
-0.0134008
-0.0295307
-0.04401
-0.0584469
-0.0726275
-0.0857777
-0.0975568
0.0786559
0.0408634
0.0107624
-0.0123863
-0.0350247
-0.0593569
-0.0838153
-0.106706
-0.127418
-0.146209
-0.0352256
-0.036213
-0.0371768
-0.0381143
-0.0390246
-0.0399048
-0.0407559
-0.0415739
-0.0423645
-0.0431211
-0.0356953
-0.0367923
-0.0378612
-0.0388995
-0.0399069
-0.0408804
-0.0418224
-0.0427282
-0.0436084
-0.0444632
-0.0367793
-0.0381014
-0.0393828
-0.0406219
-0.0418204
-0.0429764
-0.0440967
-0.0451789
-0.046248
-0.0473208
-0.0386529
-0.0403463
-0.0419853
-0.0435717
-0.0451121
-0.0466018
-0.0480499
-0.049449
-0.0508473
-0.0522932
-0.041841
-0.0440461
-0.0461544
-0.0481785
-0.0501493
-0.0520818
-0.0540171
-0.0559515
-0.0579611
-0.0600986
-0.0475451
-0.0506571
-0.0536115
-0.0563946
-0.059016
-0.0614571
-0.0637951
-0.0660842
-0.0686099
-0.071633
-0.0559237
-0.0602481
-0.0644779
-0.0686947
-0.0729655
-0.0772164
-0.0813948
-0.085303
-0.0891812
-0.0934933
-0.0716097
-0.0769419
-0.0817072
-0.0861348
-0.0904791
-0.0950928
-0.100399
-0.106736
-0.114363
-0.123153
-0.107956
-0.117246
-0.125475
-0.132801
-0.138886
-0.143833
-0.147245
-0.150185
-0.154256
-0.165282
-0.163301
-0.179219
-0.194125
-0.208767
-0.222911
-0.237849
-0.252794
-0.27056
-0.289593
-0.317006
-0.048424
-0.0502083
-0.0424052
-0.0275252
-0.0147938
-0.00865356
-0.00593351
-0.003706
-0.0018058
-0.00048231
-0.0506039
-0.0522879
-0.0430227
-0.0267261
-0.0139476
-0.00831087
-0.00576526
-0.0035361
-0.00169122
-0.000451168
-0.055305
-0.0565916
-0.0441246
-0.0250098
-0.0122814
-0.00765019
-0.00541437
-0.00318846
-0.00146536
-0.000390585
-0.0634098
-0.0634446
-0.0453432
-0.0220843
-0.00983875
-0.0067218
-0.00485887
-0.0026525
-0.00113605
-0.000304511
-0.0764429
-0.0734099
-0.0461361
-0.0175901
-0.00668293
-0.00554534
-0.00404793
-0.001917
-0.000716281
-0.000197838
-0.0965768
-0.0866611
-0.0456541
-0.0114348
-0.00307791
-0.0041402
-0.00292115
-0.000983306
-0.000224786
-7.42484e-05
-0.128919
-0.103209
-0.0420747
-0.00331617
0.000799391
-0.00245433
-0.00144265
0.000105835
0.000302369
5.66755e-05
-0.180414
-0.123147
-0.0344092
0.00674045
0.0051689
-0.000151876
0.000501811
0.00135211
0.000869701
0.000208325
-0.256412
-0.141126
-0.0226357
0.0186328
0.0108129
0.00291014
0.00253701
0.0024465
0.00134304
0.000334085
-0.360121
-0.153159
-0.0197486
0.0264729
0.0186903
0.00862624
0.00560961
0.00377481
0.00189772
0.000514332
-0.411993
-0.143672
-0.0210787
0.0282067
0.0214876
0.0110703
0.00680183
0.00419183
0.00207026
0.000577649
-0.414912
-0.131344
-0.0173888
0.0302232
0.0224486
0.0116352
0.0070444
0.00426759
0.00210086
0.000589461
-0.404675
-0.11649
-0.0117408
0.0330822
0.0234521
0.0121016
0.0072301
0.00432281
0.00212335
0.000598714
-0.393138
-0.105886
-0.00756824
0.0355843
0.0243885
0.0125366
0.00740245
0.00437598
0.00214528
0.000607597
-0.382562
-0.0977501
-0.00425236
0.0377628
0.0252268
0.0129288
0.0075571
0.0044241
0.00216508
0.000615547
-0.372491
-0.0907097
-0.00110589
0.0397563
0.0259622
0.0132646
0.00768767
0.00446445
0.0021816
0.00062223
-0.363203
-0.0846881
0.00183745
0.0415126
0.0265772
0.0135383
0.00779286
0.00449679
0.00219482
0.000627621
-0.355359
-0.0798217
0.00433229
0.0429277
0.0270532
0.013747
0.00787249
0.00452122
0.00220479
0.00063171
-0.34961
-0.0762798
0.0061574
0.0439204
0.0273777
0.0138879
0.00792604
0.00453763
0.00221147
0.000634459
-0.346552
-0.0743737
0.00712798
0.0444332
0.0275422
0.013959
0.00795297
0.00454587
0.00221481
0.000635839
)
;

boundaryField
{
    inlet
    {
        type            zeroGradient;
    }
    outlet
    {
        type            fixedValue;
        value           uniform 0;
    }
    cylinder
    {
        type            zeroGradient;
    }
    top
    {
        type            symmetryPlane;
    }
    bottom
    {
        type            symmetryPlane;
    }
    defaultFaces
    {
        type            empty;
    }
}


// ************************************************************************* //
