/*--------------------------------*- C++ -*----------------------------------*\
  =========                 |
  \\      /  F ield         | OpenFOAM: The Open Source CFD Toolbox
   \\    /   O peration     | Website:  https://openfoam.org
    \\  /    A nd           | Version:  6.0
     \\/     M anipulation  |
\*---------------------------------------------------------------------------*/
FoamFile
{
    version     2.0;
    format      ascii;
    class       surfaceScalarField;
    location    "5";
    object      phi;
}
// * * * * * * * * * * * * * * * * * * * * * * * * * * * * * * * * * * * * * //

dimensions      [0 3 -1 0 0 0 0];

internalField   nonuniform List<scalar> 
3880
(
-7.62251e-05
7.62253e-05
-1.68929e-10
-0.000226331
0.000150118
-1.23416e-08
-0.000411991
0.000185691
-3.12474e-08
-0.000611533
0.000199594
-5.26546e-08
-0.000811826
0.000200367
-7.39855e-08
-0.00100469
0.000192956
-9.34898e-08
-0.00118485
0.000180273
-1.09704e-07
-0.00134919
0.000164461
-1.21372e-07
-0.00149658
0.000147513
-1.27566e-07
0.000131339
-1.28303e-07
-0.00162779
-6.6828e-05
0.000143053
-0.000200576
0.000283866
-0.000366604
0.00035172
-0.000544185
0.000377175
-0.000720054
0.000376236
-0.000885414
0.000358316
-0.00103416
0.000329014
-0.00116218
0.000292481
-0.0012676
0.000252934
0.000214363
-0.00135062
-5.02799e-05
0.000193333
-0.00015452
0.000388107
-0.000284646
0.000481845
-0.000421908
0.000514437
-0.000553205
0.000507533
-0.000669038
0.000474149
-0.000762139
0.000422114
-0.000826843
0.000357186
-0.000859747
0.000285838
0.000215081
-0.000860465
-3.04521e-05
0.000223785
-9.77657e-05
0.00045542
-0.000181759
0.000565839
-0.000266615
0.000599293
-0.00034014
0.000581058
-0.000392699
0.000526709
-0.000416251
0.000445666
-0.000403679
0.000344614
-0.000349524
0.000231682
0.000118569
-0.000253013
-1.17842e-05
0.000235569
-4.17278e-05
0.000485364
-7.69078e-05
0.000601019
-0.000104874
0.000627259
-0.000115092
0.000591276
-9.85584e-05
0.000510175
-4.71449e-05
0.000394253
4.7132e-05
0.000250337
0.00019184
8.69749e-05
-7.80008e-05
0.00038841
1.94505e-06
0.000233624
3.3834e-06
0.000483925
1.24733e-05
0.000591929
3.87916e-05
0.000600941
9.11341e-05
0.000538934
0.000177683
0.000423627
0.000306463
0.000265472
0.000485888
7.09122e-05
0.000725137
-0.000152274
-0.000380266
0.0010274
8.73124e-06
0.000224893
3.17652e-05
0.000460891
7.6285e-05
0.000547409
0.000150683
0.000526543
0.00026322
0.000426396
0.000422315
0.000264532
0.00063665
5.11366e-05
0.000914915
-0.000207352
0.00126574
-0.000503097
-0.000810021
0.00169549
9.04052e-06
0.000215853
4.4474e-05
0.000425458
0.000116859
0.000475024
0.00023631
0.000407092
0.00041311
0.000249596
0.000657855
1.9787e-05
0.000980494
-0.000271502
0.00138873
-0.000615592
0.00188519
-0.000999557
-0.00140272
0.0024779
5.80415e-06
0.000210048
4.98668e-05
0.000381395
0.000150321
0.00037457
0.000322549
0.000234863
0.000581419
-9.27417e-06
0.000940018
-0.000338811
0.00140644
-0.000737927
0.00198163
-0.00119078
0.00265473
-0.00167266
-0.0021732
0.00342521
3.47412e-06
0.000206574
6.10109e-05
0.000323858
0.000201585
0.000233996
0.000448474
-1.20265e-05
0.000820879
-0.000381678
0.0013295
-0.000847433
0.00197127
-0.00137969
0.00272807
-0.00194758
0.00356205
-0.00250664
-0.00305071
0.00443957
6.29437e-06
0.00020028
9.05447e-05
0.000239608
0.000293922
3.06185e-05
0.000646904
-0.000365008
0.00116669
-0.000901464
0.0018497
-0.00153044
0.00266911
-0.00219911
0.00358103
-0.00285949
0.00452345
-0.00344907
-0.00401555
0.00548829
1.67772e-05
0.000183503
0.000146075
0.00011031
0.000439675
-0.000262981
0.000928573
-0.000853906
0.00161355
-0.00158644
0.00246
-0.0023769
0.00340731
-0.00314641
0.00438382
-0.00383601
0.00533092
-0.00439617
-0.00488429
0.00619966
3.54759e-05
0.000148027
0.000229237
-8.34513e-05
0.000637909
-0.000671652
0.00127807
-0.00149407
0.00211359
-0.00242196
0.00306666
-0.00332997
0.00404635
-0.0041261
0.00497218
-0.00476185
0.00579804
-0.00522202
-0.00555708
0.00647083
6.19535e-05
8.60734e-05
0.000337675
-0.000359173
0.000876449
-0.00121043
0.00165691
-0.00227453
0.00258862
-0.00335367
0.00355549
-0.00429684
0.00445906
-0.00502966
0.0052386
-0.00554139
0.00587628
-0.00585971
-0.00604155
0.00636075
9.56814e-05
-9.60799e-06
0.000466447
-0.000729938
0.0011328
-0.00187678
0.00200991
-0.00315164
0.00295407
-0.00429783
0.00383794
-0.00518071
0.00458702
-0.00577874
0.00517937
-0.00613373
0.00563052
-0.00631086
-0.00637273
0.0059617
0.000136045
-0.000145653
0.000607025
-0.00120092
0.00137454
-0.00264429
0.00227879
-0.00405589
0.00315013
-0.00516917
0.00388581
-0.00591639
0.00445521
-0.00634814
0.00487506
-0.00655358
0.00518212
-0.00661792
-0.0066008
0.00541019
0.000181749
-0.000327402
0.000745646
-0.00176482
0.00156515
-0.00346379
0.00242235
-0.00491309
0.00316233
-0.00590915
0.00372952
-0.00648358
0.00413556
-0.00675417
0.00442021
-0.00683824
0.00462484
-0.00682255
-0.00675783
0.00478187
0.00023025
-0.000557652
0.000864312
-0.00239888
0.00167592
-0.0042754
0.00242965
-0.00566682
0.00301544
-0.00649494
0.00342579
-0.00689393
0.00369994
-0.00702832
0.00388487
-0.00702317
0.00401749
-0.00695517
-0.00686331
0.00412298
0.000277404
-0.000835055
0.000945559
-0.00306703
0.00169535
-0.0050252
0.00231585
-0.00628731
0.00275073
-0.00692982
0.00302844
-0.00717165
0.00320058
-0.00720046
0.00331133
-0.00713392
0.00338931
-0.00703315
-0.00692659
0.00345259
0.00031763
-0.00115269
0.000978046
-0.00372745
0.0016287
-0.00567586
0.00210831
-0.00676692
0.00240803
-0.00722954
0.00257787
-0.00734149
0.00267091
-0.00729349
0.00272372
-0.00718673
0.0027567
-0.00706613
-0.00695154
0.00278165
0.000345044
-0.00149773
0.000959149
-0.00434155
0.00149096
-0.00620767
0.0018353
-0.00711126
0.00201887
-0.00741311
0.00210134
-0.00742396
0.0021307
-0.00732286
0.00213468
-0.00719072
0.00212677
-0.00705822
-0.00693941
0.00211464
0.000355062
-0.00185279
0.00089345
-0.00487994
0.00129985
-0.00661406
0.00152056
-0.00733197
0.00160563
-0.00749818
0.00161583
-0.00743416
0.00159112
-0.00729814
0.00155103
-0.00715063
0.00150403
-0.00701122
-0.00689011
0.00145474
0.000345679
-0.00219847
0.000789512
-0.00532377
0.00107212
-0.00689667
0.0011824
-0.00744225
0.00118338
-0.00749916
0.00113162
-0.00738239
0.00105833
-0.00722486
0.000976459
-0.00706876
0.000891004
-0.00692576
-0.00680387
0.000804761
0.000317563
-0.00251603
0.000656925
-0.00566314
0.000821806
-0.00706156
0.00083403
-0.00745447
0.000761815
-0.00742695
0.000654644
-0.00727522
0.000535744
-0.00710595
0.000413161
-0.00694618
0.000289625
-0.00680223
-0.00668101
0.000166761
0.00027338
-0.00278941
0.000504704
-0.00589446
0.000559887
-0.00711674
0.000484722
-0.00737931
0.000347085
-0.00728931
0.000188359
-0.0071165
2.51936e-05
-0.00694279
-0.00013759
-0.0067834
-0.000298595
-0.00664122
-0.00652273
-0.000456876
0.000216792
-0.00300621
0.000340586
-0.00601825
0.000294578
-0.00707073
0.000140787
-0.00722552
-5.6899e-05
-0.00709163
-0.000265158
-0.00690824
-0.000472382
-0.00673556
-0.000675579
-0.0065802
-0.000873836
-0.00644297
-0.00632895
-0.00106761
0.000151694
-0.0031579
0.000170973
-0.00603753
3.18577e-05
-0.00693161
-0.000193719
-0.00699994
-0.000447995
-0.00683735
-0.000705021
-0.00665121
-0.00095695
-0.00648364
-0.00120184
-0.00633531
-0.00143868
-0.00620612
-0.0060956
-0.00167204
8.18795e-05
-0.00323978
1.39343e-06
-0.00595705
-0.000223449
-0.00670677
-0.000515853
-0.00670754
-0.000825287
-0.00652792
-0.00113203
-0.00634447
-0.0014306
-0.00618506
-0.00171968
-0.00604624
-0.00199914
-0.00592666
-0.00581212
-0.00228262
1.09058e-05
-0.00325068
-0.000162981
-0.00578316
-0.000466233
-0.00640352
-0.000821304
-0.00635247
-0.00118587
-0.00616335
-0.00154582
-0.00598452
-0.00189683
-0.00583405
-0.00223607
-0.005707
-0.00256253
-0.0056002
-0.00547276
-0.0029019
-5.82568e-05
-0.00319243
-0.000317681
-0.00552374
-0.000690989
-0.00603021
-0.0011026
-0.00594085
-0.0015192
-0.00574675
-0.00193345
-0.00557028
-0.00234465
-0.00542285
-0.00275321
-0.00529844
-0.00316122
-0.00519219
-0.00517763
-0.00345635
-0.000123596
-0.00306883
-0.000460066
-0.00518727
-0.000894558
-0.00559572
-0.00135385
-0.00548156
-0.00181169
-0.00528891
-0.00226644
-0.00511553
-0.0027229
-0.00496638
-0.00318281
-0.00483853
-0.00365074
-0.00472426
-0.00457329
-0.00425507
-0.000184012
-0.00288482
-0.000589436
-0.00478184
-0.00107801
-0.00510714
-0.00157893
-0.00498064
-0.00206914
-0.00479871
-0.00254436
-0.0046403
-0.00300467
-0.00450607
-0.00345596
-0.00438725
-0.00391039
-0.00426983
-0.00414174
-0.00434194
-0.00023855
-0.00264627
-0.000704792
-0.0043156
-0.00124126
-0.00457067
-0.00178148
-0.00444043
-0.00230845
-0.00427174
-0.00282127
-0.00412748
-0.00332161
-0.00400574
-0.0038108
-0.00389805
-0.00428391
-0.00379672
-0.00370557
-0.00472009
-0.000286739
-0.00235953
-0.000805467
-0.00379687
-0.00138197
-0.00399417
-0.00195281
-0.00386959
-0.00250484
-0.0037197
-0.00303914
-0.00359318
-0.00355831
-0.00348657
-0.00406353
-0.00339284
-0.00455301
-0.00330724
-0.00323291
-0.00502567
-0.000328614
-0.00203092
-0.000892745
-0.00323274
-0.00150495
-0.00338197
-0.00210537
-0.00326917
-0.00268439
-0.00314068
-0.00324411
-0.00303346
-0.00378699
-0.00294369
-0.00431396
-0.00286586
-0.00482475
-0.00279645
-0.00273866
-0.00531901
-0.000363588
-0.00166733
-0.00096501
-0.00263132
-0.00160605
-0.00274093
-0.00223008
-0.00264513
-0.00283049
-0.00254027
-0.00341035
-0.0024536
-0.0039726
-0.00238144
-0.00451915
-0.00231931
-0.00505101
-0.00226459
-0.0022204
-0.00556927
-0.000391898
-0.00127543
-0.00102341
-0.00199981
-0.00168798
-0.00207636
-0.00233174
-0.00200137
-0.00295041
-0.0019216
-0.00354785
-0.00185616
-0.0041273
-0.001802
-0.00469093
-0.00175568
-0.00524022
-0.00171531
-0.0016836
-0.00577701
-0.000413233
-0.000862198
-0.00106729
-0.00134575
-0.00174953
-0.00139411
-0.00240822
-0.00134269
-0.00304078
-0.00128903
-0.0036517
-0.00124524
-0.00424457
-0.00120913
-0.00482186
-0.00117838
-0.00538534
-0.00115183
-0.00113151
-0.00593744
-0.000427518
-0.00043468
-0.00109663
-0.000676643
-0.00179072
-0.000700023
-0.00245952
-0.000673892
-0.00310163
-0.000646927
-0.00372187
-0.000624997
-0.00432405
-0.000606951
-0.0049108
-0.00059163
-0.00548414
-0.000578485
-0.000568619
-0.00604703
-0.000434686
5.72361e-09
-0.00111134
8.30837e-09
-0.00181137
8.29232e-09
-0.00248527
7.83634e-09
-0.0031322
7.37951e-09
-0.00375721
6.9512e-09
-0.00436416
6.54778e-09
-0.0049558
6.1624e-09
-0.00553429
5.79362e-09
5.45213e-09
-0.00610292
-0.000434686
0.000434691
-0.00111134
0.000676659
-0.00181137
0.00070004
-0.00248527
0.000673908
-0.0031322
0.000646942
-0.00375721
0.000625011
-0.00436416
0.000606964
-0.0049558
0.000591642
-0.00553429
0.000578497
0.00056863
-0.00610292
-0.000427519
0.00086221
-0.00109663
0.00134577
-0.00179072
0.00139413
-0.00245952
0.00134271
-0.00310163
0.00128905
-0.00372187
0.00124526
-0.00432405
0.00120914
-0.0049108
0.00117839
-0.00548414
0.00115184
0.00113152
-0.00604703
-0.000413233
0.00127544
-0.00106729
0.00199983
-0.00174954
0.00207637
-0.00240822
0.00200139
-0.00304078
0.00192161
-0.0036517
0.00185617
-0.00424457
0.00180201
-0.00482186
0.00175569
-0.00538534
0.00171532
0.00168361
-0.00593744
-0.000391899
0.00166734
-0.00102341
0.00263134
-0.00168798
0.00274095
-0.00233174
0.00264515
-0.00295041
0.00254028
-0.00354785
0.00245362
-0.0041273
0.00238146
-0.00469093
0.00231932
-0.00524022
0.0022646
0.00222041
-0.00577701
-0.000363589
0.00203093
-0.000965011
0.00323276
-0.00160605
0.00338198
-0.00223008
0.00326918
-0.00283049
0.0031407
-0.00341035
0.00303347
-0.0039726
0.0029437
-0.00451915
0.00286587
-0.00505101
0.00279646
0.00273867
-0.00556927
-0.000328614
0.00235954
-0.000892746
0.00379689
-0.00150495
0.00399418
-0.00210537
0.00386961
-0.00268439
0.00371972
-0.00324411
0.00359319
-0.00378699
0.00348658
-0.00431397
0.00339285
-0.00482475
0.00330725
0.00323292
-0.00531901
-0.000286739
0.00264628
-0.000805468
0.00431562
-0.00138198
0.00457069
-0.00195281
0.00444044
-0.00250485
0.00427175
-0.00303915
0.00412749
-0.00355831
0.00400575
-0.00406353
0.00389806
-0.00455301
0.00379673
0.00370558
-0.00502567
-0.00023855
0.00288483
-0.000704793
0.00478186
-0.00124126
0.00510716
-0.00178148
0.00498066
-0.00230845
0.00479872
-0.00282127
0.00464032
-0.00332161
0.00450609
-0.0038108
0.00438726
-0.00428391
0.00426984
0.00414175
-0.00472009
-0.000184013
0.00306885
-0.000589437
0.00518729
-0.00107802
0.00559574
-0.00157894
0.00548158
-0.00206914
0.00528893
-0.00254437
0.00511554
-0.00300467
0.00496639
-0.00345596
0.00483855
-0.00391039
0.00472427
0.0045733
-0.00434194
-0.000123597
0.00319244
-0.000460068
0.00552376
-0.000894561
0.00603023
-0.00135385
0.00594087
-0.00181169
0.00574676
-0.00226644
0.00557029
-0.00272291
0.00542286
-0.00318282
0.00529846
-0.00365075
0.0051922
0.00517764
-0.00425508
-5.82578e-05
0.0032507
-0.000317683
0.00578318
-0.000690992
0.00640354
-0.00110261
0.00635249
-0.00151921
0.00616337
-0.00193346
0.00598454
-0.00234466
0.00583406
-0.00275321
0.00570701
-0.00316123
0.00560021
0.00547277
-0.00345635
1.09047e-05
0.0032398
-0.000162984
0.00595707
-0.000466237
0.00670679
-0.00082131
0.00670756
-0.00118588
0.00652794
-0.00154583
0.00634449
-0.00189684
0.00618507
-0.00223608
0.00604625
-0.00256254
0.00592667
0.00581213
-0.0029019
8.18783e-05
0.00315792
1.39029e-06
0.00603756
-0.000223454
0.00693164
-0.000515859
0.00699996
-0.000825294
0.00683737
-0.00113203
0.00665123
-0.00143061
0.00648365
-0.00171968
0.00633532
-0.00199914
0.00620613
0.00609561
-0.00228262
0.000151693
0.00300622
0.00017097
0.00601828
3.18521e-05
0.00707076
-0.000193726
0.00722554
-0.000448003
0.00709165
-0.00070503
0.00690825
-0.00095696
0.00673558
-0.00120185
0.00658021
-0.00143869
0.00644298
0.00632896
-0.00167205
0.000216791
0.00278943
0.000340582
0.00589449
0.000294571
0.00711677
0.000140778
0.00737933
-5.69086e-05
0.00728933
-0.000265168
0.00711651
-0.000472393
0.00694281
-0.000675591
0.00678341
-0.000873847
0.00664124
0.00652274
-0.00106762
0.000273379
0.00251606
0.0005047
0.00566317
0.00055988
0.00706159
0.000484712
0.0074545
0.000347074
0.00742697
0.000188347
0.00727524
2.51805e-05
0.00710597
-0.000137604
0.00694619
-0.000298609
0.00680224
0.00668102
-0.000456891
0.000317562
0.00219849
0.000656921
0.00532381
0.000821798
0.00689671
0.000834018
0.00744228
0.000761802
0.00749919
0.00065463
0.00738241
0.000535728
0.00722487
0.000413145
0.00706878
0.000289609
0.00692578
0.00680388
0.000166744
0.000345678
0.00185281
0.000789508
0.00487998
0.00107212
0.0066141
0.00118239
0.00733201
0.00118337
0.00749821
0.0011316
0.00743418
0.00105831
0.00729816
0.00097644
0.00715065
0.000890984
0.00701123
0.00689013
0.00080474
0.000355063
0.00149775
0.000893447
0.0043416
0.00129984
0.00620771
0.00152055
0.0071113
0.00160562
0.00741314
0.00161581
0.00742398
0.00159109
0.00732288
0.00155101
0.00719073
0.00150401
0.00705824
0.00693942
0.00145471
0.000345045
0.00115271
0.000959148
0.0037275
0.00149095
0.00567591
0.00183528
0.00676696
0.00201885
0.00722957
0.00210131
0.00734152
0.00213068
0.00729352
0.00213466
0.00718675
0.00212675
0.00706615
0.00695155
0.00211461
0.000317632
0.000835074
0.000978047
0.00306708
0.0016287
0.00502526
0.0021083
0.00628736
0.00240801
0.00692986
0.00257785
0.00717168
0.00267088
0.00720049
0.00272369
0.00713394
0.00275667
0.00703317
0.0069266
0.00278162
0.000277406
0.000557668
0.000945563
0.00239893
0.00169535
0.00427547
0.00231584
0.00566688
0.00275071
0.00649499
0.00302841
0.00689398
0.00320054
0.00702835
0.0033113
0.00702319
0.00338927
0.00695519
0.00686333
0.00345255
0.000230253
0.000327415
0.000864319
0.00176486
0.00167593
0.00346386
0.00242964
0.00491316
0.00301542
0.00590921
0.00342577
0.00648363
0.00369991
0.00675422
0.00388483
0.00683827
0.00401745
0.00682257
0.00675785
0.00412293
0.000181752
0.000145663
0.000745655
0.00120096
0.00156516
0.00264435
0.00242236
0.00405597
0.00316232
0.00516925
0.0037295
0.00591645
0.00413552
0.00634819
0.00442017
0.00655362
0.00462479
0.00661795
0.00660083
0.00478181
0.000136048
9.61514e-06
0.000607035
0.00072997
0.00137455
0.00187683
0.0022788
0.00315172
0.00315013
0.00429792
0.0038858
0.00518079
0.00445518
0.00577881
0.00487501
0.00613379
0.00518206
0.0063109
0.00637276
0.00541013
9.56841e-05
-8.6069e-05
0.000466457
0.000359196
0.00113282
0.00121048
0.00200993
0.00227461
0.00295409
0.00335376
0.00383794
0.00429693
0.00458701
0.00502975
0.00517933
0.00554146
0.00563047
0.00585977
0.00604159
0.00596163
6.19563e-05
-0.000148025
0.000337686
8.34668e-05
0.000876471
0.000671691
0.00165694
0.00149414
0.00258866
0.00242204
0.00355552
0.00333007
0.00445906
0.0041262
0.00523858
0.00476194
0.00587624
0.00522211
0.00555715
0.00636069
3.54791e-05
-0.000183504
0.000229249
-0.000110303
0.000637933
0.000263007
0.00127811
0.000853958
0.00211364
0.00158652
0.0030667
0.002377
0.00404638
0.00314652
0.0049722
0.00383613
0.00579802
0.00439629
0.00488439
0.00647079
1.67813e-05
-0.000200286
0.000146089
-0.000239611
0.000439701
-3.06057e-05
0.000928614
0.000365045
0.0016136
0.000901529
0.00246007
0.00153054
0.00340737
0.00219922
0.00438387
0.00285962
0.00533094
0.00344921
0.00401569
0.00619964
6.29954e-06
-0.000206585
9.05601e-05
-0.000323871
0.000293951
-0.000233997
0.000646947
1.20482e-05
0.00116675
0.000381728
0.00184977
0.000847513
0.00266919
0.0013798
0.0035811
0.00194772
0.00452351
0.0025068
0.00305089
0.00548831
3.47971e-06
-0.000210065
6.10262e-05
-0.000381418
0.000201612
-0.000374582
0.000448515
-0.000234855
0.000820933
9.30962e-06
0.00132957
0.000338877
0.00197135
0.000738024
0.00272816
0.0011909
0.00356214
0.00167282
0.00217338
0.00443965
5.80903e-06
-0.000215874
4.98789e-05
-0.000425488
0.000150341
-0.000475044
0.000322577
-0.000407091
0.000581456
-0.00024957
0.000940065
-1.97319e-05
0.0014065
0.000271588
0.0019817
0.000615707
0.00265481
0.0009997
0.0014029
0.0034253
9.04347e-06
-0.000224917
4.44797e-05
-0.000460924
0.000116866
-0.00054743
0.000236317
-0.000526542
0.000413117
-0.000426369
0.000657863
-0.000264478
0.000980504
-5.1054e-05
0.00138875
0.000207463
0.00188522
0.000503234
0.00081018
0.00247793
8.73148e-06
-0.000233649
3.17627e-05
-0.000483955
7.6276e-05
-0.000591943
0.000150664
-0.00060093
0.00026319
-0.000538896
0.000422273
-0.000423561
0.000636598
-0.000265379
0.000914854
-7.07934e-05
0.00126567
0.000152415
0.000380421
0.00169543
1.94248e-06
-0.000235591
3.37288e-06
-0.000485386
1.24498e-05
-0.00060102
3.87509e-05
-0.000627231
9.10731e-05
-0.000591218
0.0001776
-0.000510087
0.000306358
-0.000394137
0.000485762
-0.000250198
0.000724996
-8.68186e-05
7.81631e-05
0.00102725
-1.1789e-05
-0.000223802
-4.17441e-05
-0.00045543
-7.6941e-05
-0.000565823
-0.000104928
-0.000599244
-0.000115171
-0.000580975
-9.86654e-05
-0.000526593
-4.72802e-05
-0.000445522
4.69699e-05
-0.000344448
0.000191654
-0.000231503
-0.000118389
0.000388207
-3.0458e-05
-0.000193344
-9.77844e-05
-0.000388104
-0.000181795
-0.000481812
-0.000266673
-0.000514367
-0.000340223
-0.000507425
-0.000392809
-0.000474006
-0.00041639
-0.000421942
-0.000403846
-0.000356992
-0.000349718
-0.000285632
-0.000214876
-0.000253231
-5.02857e-05
-0.000143059
-0.000154538
-0.000283852
-0.000284678
-0.000351672
-0.000421959
-0.000377086
-0.000553277
-0.000376107
-0.000669133
-0.00035815
-0.000762258
-0.000328817
-0.000826988
-0.000292262
-0.000859916
-0.000252703
-0.000214133
-0.00086066
-6.68321e-05
-7.62265e-05
-0.000200588
-0.000150097
-0.000366627
-0.000185633
-0.00054422
-0.000199493
-0.000720103
-0.000200224
-0.000885478
-0.000192774
-0.00103424
-0.000180059
-0.00116227
-0.000164224
-0.00126771
-0.000147264
-0.000131089
-0.00135076
-7.62267e-05
-0.000226336
-0.000411999
-0.000611545
-0.000811843
-0.00100471
-0.00118488
-0.00134923
-0.00149662
-0.00162783
-0.000649979
-0.000976181
-1.62679e-06
0.00174609
-0.00239771
1.64168e-06
0.00414158
-0.00239731
1.81345e-06
0.00571526
-0.00157428
6.03189e-07
0.00658532
-0.000869872
-1.89973e-07
0.00697637
-0.000390617
-4.28082e-07
0.00711993
-0.000143273
-2.93525e-07
0.00714377
-2.36223e-05
-2.14976e-07
0.00711459
2.93898e-05
-2.07314e-07
5.88603e-05
-9.04583e-08
-0.000161155
-0.00216565
0.00199127
-0.00455013
0.00423709
-0.00464313
0.00574557
-0.00308276
0.0065862
-0.0017105
0.00696681
-0.000771227
0.00710894
-0.000285405
0.00713529
-4.99719e-05
0.00711013
5.45488e-05
0.000113009
0.000691542
-0.00371765
0.00244445
-0.00630304
0.00441676
-0.00661545
0.0058017
-0.0044677
0.0065865
-0.0024953
0.00694733
-0.00113205
0.00708692
-0.000425
0.00711837
-8.14205e-05
0.00710125
7.16648e-05
0.000157939
0.00170522
-0.00567589
0.00303062
-0.00762844
0.00465628
-0.0082411
0.00587422
-0.00568564
0.0065831
-0.00320417
0.00691708
-0.00146603
0.00705374
-0.000561668
0.00709304
-0.000120722
0.00708799
7.67193e-05
0.000189104
0.00268458
-0.00797205
0.00365578
-0.00859964
0.00492076
-0.00950607
0.0059494
-0.00671429
0.0065713
-0.00382607
0.00687476
-0.00176949
0.0070092
-0.000696109
0.00705937
-0.000170897
0.0070704
6.56865e-05
0.000202027
0.0035123
-0.010457
0.00423929
-0.00932663
0.00517307
-0.0104398
0.00601161
-0.00755283
0.00654542
-0.00435988
0.00681871
-0.00204278
0.00695299
-0.000830386
0.00701741
-0.00023532
0.00704857
3.45225e-05
0.000192321
0.00414758
-0.012909
0.00472576
-0.00990481
0.00538031
-0.0110944
0.00604599
-0.00821851
0.00649982
-0.00481372
0.00674721
-0.00229017
0.00688479
-0.000967965
0.00696722
-0.000317746
0.00702258
-2.08371e-05
0.000155705
0.00458878
-0.0150199
0.00507185
-0.0103879
0.0055154
-0.0115379
0.00604054
-0.00874365
0.00642985
-0.00520303
0.0066588
-0.00251912
0.00680435
-0.00111352
0.00690888
-0.000422275
0.00699251
-0.000104464
8.80252e-05
0.00491644
-0.0165112
0.00527817
-0.0107496
0.0055738
-0.0118336
0.00599088
-0.00916073
0.00633262
-0.00554477
0.00655231
-0.00273881
0.00671146
-0.00127267
0.0068425
-0.000553316
0.00695846
-0.00022043
-1.47263e-05
0.00507735
-0.0171489
0.00544565
-0.0111179
0.00559614
-0.0119841
0.00591192
-0.00947651
0.00620402
-0.00583686
0.00642381
-0.0029586
0.00660517
-0.00145403
0.00676804
-0.000716184
0.00692045
-0.000372843
-0.000156485
0.0514556
-0.00921373
-0.0593908
0.0548752
-0.0145375
0.050953
-0.00806186
0.0466219
-0.00514545
0.0441458
-0.00336078
0.0432051
-0.00201788
0.0429097
-0.00115866
0.0428372
-0.000643603
0.042858
-0.000393718
-0.000193374
0.050937
-0.00322213
-0.0569286
0.048094
-0.0116946
0.0464349
-0.00640273
0.044477
-0.00318754
0.0433948
-0.00227856
0.0430199
-0.00164304
0.0429037
-0.00104239
0.0428668
-0.000606778
0.0428792
-0.000406105
-0.000217786
0.0499903
-0.000402805
-0.0528096
0.0466652
-0.00836949
0.0455596
-0.00529715
0.0443631
-0.00199096
0.0435036
-0.00141913
0.0431336
-0.00127305
0.0429977
-0.000906483
0.0429362
-0.000545259
0.0429176
-0.000387509
-0.000222701
0.0484788
0.000808593
-0.0496902
0.045694
-0.00558468
0.0447065
-0.00430961
0.0441181
-0.00140257
0.0435344
-0.000835463
0.0431939
-0.000932551
0.0430491
-0.000761621
0.0429795
-0.000475703
0.0429445
-0.000352473
-0.000213297
0.0472748
0.00100655
-0.0474728
0.0451607
-0.00347055
0.0441532
-0.0033021
0.0438507
-0.0011001
0.0435087
-0.000493502
0.0432313
-0.000655115
0.0430871
-0.000617435
0.0430133
-0.00040191
0.0429669
-0.000306026
-0.0001924
0.0461988
0.000910659
-0.046103
0.0447845
-0.00205621
0.043875
-0.00239256
0.0436657
-0.000890877
0.0434745
-0.000302245
0.0432574
-0.000438008
0.0431155
-0.000475593
0.0430378
-0.000324217
0.0429838
-0.000251941
-0.000162799
0.0454059
0.000705497
-0.0452007
0.0445153
-0.00116562
0.0437445
-0.00162173
0.0435389
-0.000685332
0.0434282
-0.000191505
0.0432676
-0.000277438
0.0431347
-0.000342694
0.043055
-0.000244491
0.042996
-0.000192925
-0.000126981
0.0448661
0.000464497
-0.0446251
0.0443115
-0.000610967
0.0436793
-0.000989604
0.0434598
-0.000465818
0.0433862
-0.000117889
0.04327
-0.000161237
0.043148
-0.000220659
0.0430669
-0.000163482
0.0430045
-0.000130455
-8.68731e-05
0.0445232
0.000228878
-0.0442876
0.0441729
-0.000260673
0.0436497
-0.000466407
0.0434179
-0.000233941
0.0433564
-5.64081e-05
0.0432689
-7.37394e-05
0.0431561
-0.000107906
0.0430745
-8.18404e-05
0.0430098
-6.57477e-05
-4.40968e-05
0.044359
-0.0441302
0.0440984
0.043632
0.043398
0.0433416
0.0432679
0.04316
0.0430781
0.0430124
0.0536457
0.00179948
-0.0526635
0.0546831
0.00241516
0.055769
0.00303708
0.0569064
0.00364447
0.058056
0.00426062
0.0591926
0.00482511
0.0601451
0.00540822
0.0607696
0.00584636
0.0606683
0.00630099
0.00676577
0.0492046
0.00122639
-0.0486315
0.0498581
0.00176163
0.0505962
0.002299
0.0514048
0.00283582
0.0522933
0.00337215
0.0532144
0.00390406
0.0541936
0.00442901
0.0551025
0.00493741
0.0560142
0.00538927
0.00585146
0.0460442
0.000887341
-0.0457052
0.0464563
0.00134959
0.0469459
0.00180932
0.0475131
0.00226868
0.0481703
0.00271495
0.048916
0.00315838
0.0497729
0.0035721
0.0507215
0.00398878
0.0517597
0.00435107
0.00480153
0.044125
0.000645143
-0.0438828
0.0444438
0.00103074
0.0448408
0.00141235
0.0453178
0.00179172
0.0458723
0.00216045
0.0465034
0.00252721
0.0472008
0.00287475
0.0479643
0.0032253
0.0487777
0.00353759
0.00388904
0.0428919
0.000469404
-0.0427162
0.0431363
0.000786428
0.0434478
0.00110081
0.0438268
0.0014127
0.0442701
0.00171718
0.04478
0.0020173
0.0453517
0.00230306
0.0459926
0.00258436
0.0466908
0.00283947
0.00310701
0.0420505
0.000338716
-0.0419198
0.0422468
0.000590128
0.0425083
0.000839314
0.0428354
0.00108557
0.0432267
0.00132593
0.0436828
0.00156121
0.0441997
0.00178614
0.0447786
0.00200547
0.0454103
0.00220776
0.00241438
0.0415027
0.000234067
-0.0413981
0.0416715
0.000421361
0.0419038
0.000606977
0.0421992
0.000790161
0.042556
0.000969152
0.0429733
0.00114395
0.0434478
0.0013116
0.0439792
0.00147413
0.0445618
0.00162512
0.00177544
0.0411489
0.000147179
-0.041062
0.0412987
0.000271596
0.0415107
0.000394911
0.0417844
0.00051653
0.0421181
0.000635405
0.0425108
0.000751301
0.0429598
0.000862576
0.0434638
0.000970067
0.0440186
0.00107036
0.00116893
0.0409372
7.09262e-05
-0.040861
0.0410758
0.000132994
0.0412762
0.000194523
0.0415375
0.000255197
0.0418584
0.000314523
0.0422374
0.000372336
0.0426721
0.000427896
0.0431606
0.000481505
0.0436993
0.000531639
0.000580664
0.0408389
-0.040768
0.0409719
0.0411664
0.0414216
0.0417361
0.0421085
0.0425363
0.0430179
0.0435495
0.0471542
-0.00233354
-0.0482771
0.0472858
-0.00303341
0.0476326
-0.00262943
0.0481274
-0.00216683
0.0487056
-0.00164581
0.0493529
-0.00110424
0.0500752
-0.000555521
0.050872
7.95568e-06
0.0517372
0.000589595
0.00118829
0.0465961
-0.00312411
-0.0458056
0.0466133
-0.0030506
0.0466213
-0.00263745
0.0466984
-0.00224387
0.0468627
-0.00181014
0.0470936
-0.00133517
0.0473789
-0.000840823
0.0477243
-0.00033747
0.0481396
0.000174318
0.000696406
0.0455351
-0.00305088
-0.0456083
0.045349
-0.00286454
0.0452011
-0.00248951
0.0450854
-0.00212813
0.0450247
-0.00174951
0.0450316
-0.00134201
0.0451038
-0.000913081
0.0452387
-0.000472353
0.0454379
-2.48758e-05
0.000429151
0.0446664
-0.00274246
-0.0449748
0.0443521
-0.00255031
0.0440984
-0.00223573
0.0438885
-0.00191831
0.0437265
-0.00158744
0.0436234
-0.00123898
0.043586
-0.000875649
0.0436159
-0.000502265
0.043714
-0.000122994
0.000260377
0.0440247
-0.00236128
-0.0444059
0.0436482
-0.00217373
0.0433284
-0.00191596
0.0430601
-0.00165002
0.042845
-0.00137233
0.0426885
-0.00108252
0.0425955
-0.000782618
0.0425685
-0.000475255
0.0426085
-0.000162949
0.000152628
0.0435469
-0.00192997
-0.0439782
0.0431383
-0.00176512
0.0427826
-0.00156025
0.0424798
-0.00134729
0.0422326
-0.00112513
0.0420442
-0.000894124
0.0419173
-0.000655708
0.0418537
-0.000411616
0.0418543
-0.000163545
8.71033e-05
0.0432149
-0.00146609
-0.0436788
0.0427873
-0.00133744
0.0424116
-0.00118459
0.0420893
-0.00102496
0.0418227
-0.000858535
0.0416144
-0.000685817
0.0414665
-0.000507791
0.0413805
-0.000325625
0.0413574
-0.000140515
4.64446e-05
0.0430047
-0.000984896
-0.0434859
0.0425648
-0.000897449
0.0421762
-0.000796075
0.0418411
-0.000689814
0.0415616
-0.00057899
0.0413398
-0.000464089
0.0411778
-0.000345755
0.0410769
-0.00022471
0.0410381
-0.000101709
2.25121e-05
0.0428815
-0.000494273
-0.0433721
0.0424341
-0.000450109
0.0420377
-0.000399625
0.0416945
-0.000346601
0.0414068
-0.000291284
0.0411766
-0.000233957
0.0410058
-0.000174938
0.0408957
-0.000114574
0.0408472
-5.32284e-05
8.73304e-06
0.0428235
-0.0433178
0.0423734
0.0419738
0.0416272
0.0413359
0.041102
0.040927
0.0408124
0.0407592
0.0429196
0.000124209
-0.000114885
0.0428677
0.000427823
-0.000375876
0.0428456
0.000646265
-0.00062416
0.0428226
0.000963974
-0.000940989
0.0428571
0.00119409
-0.0012286
0.0429279
0.00158519
-0.00165605
0.0431963
0.00177854
-0.0020469
0.0437023
0.00221733
-0.00272332
0.0448387
0.00220112
-0.00333757
0.00112854
-0.00456686
0.0429501
0.00010306
0.0430422
0.000335713
0.0431706
0.000517857
0.0433962
0.000738369
0.0436895
0.000900779
0.0441496
0.00112514
0.0446831
0.00124504
0.0454226
0.00147778
0.0460475
0.00157627
0.00137046
0.0429603
7.16947e-05
0.0430763
0.000219675
0.043241
0.000353166
0.0434751
0.000504305
0.043758
0.000617905
0.0441135
0.000769577
0.0444963
0.000862234
0.0449459
0.00102825
0.0454248
0.00109735
0.00118692
0.0429535
4.71217e-05
0.0430337
0.000139524
0.0431501
0.000236708
0.0433107
0.000343735
0.0434986
0.000429986
0.0437314
0.000536778
0.0439852
0.000608405
0.0442968
0.000716652
0.0446324
0.000761806
0.00084449
0.0429442
3.18343e-05
0.0429895
9.42799e-05
0.0430629
0.000163282
0.043169
0.000237629
0.0432989
0.000300069
0.043464
0.000371721
0.0436502
0.000422174
0.0438769
0.000489989
0.0441171
0.000521609
0.000555634
0.0429389
2.18611e-05
0.0429683
6.48933e-05
0.04302
0.000111612
0.0430967
0.000160915
0.0431937
0.000203051
0.043316
0.000249377
0.0434551
0.00028315
0.0436191
0.000325903
0.0437925
0.000348241
0.000369938
0.0429364
1.44264e-05
0.0429589
4.23781e-05
0.0429979
7.26271e-05
0.0430548
0.000104005
0.0431265
0.000131337
0.0432151
0.000160731
0.0433151
0.000183202
0.0434307
0.000210321
0.0435528
0.000226115
0.00024391
0.0429347
8.62893e-06
0.042952
2.50881e-05
0.0429814
4.32702e-05
0.0430234
6.19437e-05
0.0430762
7.85321e-05
0.0431409
9.60546e-05
0.0432142
0.000109965
0.0432985
0.000125949
0.0433887
0.000135909
0.000146699
0.0429335
4.01531e-06
0.042947
1.16513e-05
0.04297
2.02288e-05
0.043003
2.89938e-05
0.0430447
3.68538e-05
0.0430957
4.50213e-05
0.0431541