/*--------------------------------*- C++ -*----------------------------------*\
  =========                 |
  \\      /  F ield         | OpenFOAM: The Open Source CFD Toolbox
   \\    /   O peration     | Website:  https://openfoam.org
    \\  /    A nd           | Version:  6.0
     \\/     M anipulation  |
\*---------------------------------------------------------------------------*/
FoamFile
{
    version     2.0;
    format      ascii;
    class       volVectorField;
    location    "5";
    object      U;
}
// * * * * * * * * * * * * * * * * * * * * * * * * * * * * * * * * * * * * * //

dimensions      [0 1 -1 0 0 0 0];

internalField   nonuniform List<vector> 
2000
(
(-0.00824226 0.00747692 6.68005e-20)
(-0.0318091 0.0141002 6.44613e-20)
(-0.0651802 0.0164001 -5.7676e-20)
(-0.0979089 0.0165261 -1.12427e-19)
(-0.126709 0.0154961 -7.60993e-20)
(-0.150899 0.0138456 9.80351e-20)
(-0.170434 0.0118732 5.67016e-20)
(-0.186292 0.00975544 -2.15855e-20)
(-0.199303 0.0076488 -5.46632e-20)
(-0.204828 0.00578544 2.98252e-20)
(-0.00947156 0.0214465 -1.65279e-19)
(-0.0325273 0.0407849 1.8577e-19)
(-0.0633424 0.0477047 1.8364e-20)
(-0.092874 0.0482287 -9.67147e-20)
(-0.118202 0.0452695 4.44444e-19)
(-0.138682 0.0403885 -1.90092e-19)
(-0.154207 0.0344744 -2.02817e-19)
(-0.165663 0.0280644 2.39457e-19)
(-0.174044 0.0216449 -2.33365e-19)
(-0.174982 0.0159718 8.69077e-20)
(-0.0116522 0.032693 2.743e-20)
(-0.0338896 0.0631857 7.39196e-21)
(-0.0601073 0.0747148 5.21121e-19)
(-0.0837566 0.0760328 1.76123e-19)
(-0.10264 0.0715489 3.54252e-20)
(-0.116252 0.0637076 2.71571e-19)
(-0.124439 0.0539414 -5.03795e-19)
(-0.127907 0.0431467 9.61997e-21)
(-0.127913 0.0321568 -2.87683e-19)
(-0.120847 0.0223924 2.38152e-19)
(-0.0143343 0.0401029 -5.13388e-20)
(-0.0357694 0.0792371 2.38953e-19)
(-0.056228 0.0950766 -6.56476e-19)
(-0.0721993 0.0976148 -8.26291e-20)
(-0.0825067 0.0921956 -4.49011e-19)
(-0.0869607 0.0819065 4.53736e-19)
(-0.0854643 0.0686057 -4.70075e-19)
(-0.0785097 0.053491 3.21049e-19)
(-0.0675498 0.0377029 1.31698e-19)
(-0.0504933 0.0234266 -1.14711e-19)
(-0.0170722 0.0434117 -5.59575e-19)
(-0.0380333 0.0879292 2.09042e-21)
(-0.0525514 0.107195 7.99679e-19)
(-0.0600802 0.11108 2.36828e-19)
(-0.060633 0.105282 -7.08286e-19)
(-0.0545079 0.0932317 4.25072e-19)
(-0.0418227 0.0770241 4.84776e-19)
(-0.0228752 0.0580321 -4.21335e-19)
(0.000985083 0.0376065 2.97883e-19)
(0.0295947 0.0186294 5.40226e-20)
(-0.019601 0.0431901 7.75222e-20)
(-0.040577 0.0894615 1.17079e-20)
(-0.0497078 0.110516 -1.00084e-18)
(-0.0488492 0.115263 -5.42515e-19)
(-0.0391849 0.109298 6.279e-19)
(-0.0215718 0.0961088 -7.13937e-19)
(0.00357107 0.0778152 8.13679e-19)
(0.0360545 0.0558043 -6.20916e-20)
(0.0750649 0.0315675 -2.18793e-19)
(0.118252 0.00857711 -4.85479e-19)
(-0.0219263 0.0405903 -1.55281e-19)
(-0.0432807 0.0851113 -2.31773e-19)
(-0.047682 0.10569 -2.73997e-19)
(-0.0386056 0.110129 5.64669e-19)
(-0.0181817 0.103686 1.02706e-18)
(0.012282 0.0897011 -2.00483e-19)
(0.0521276 0.0701631 -5.09735e-19)
(0.101099 0.0463318 1.49739e-19)
(0.158935 0.0198128 -9.6478e-19)
(0.223092 -0.0048329 7.79786e-19)
(-0.024256 0.0369258 9.41404e-19)
(-0.0458035 0.0767905 -4.09885e-19)
(-0.0452795 0.0944475 7.90955e-19)
(-0.0270644 0.0970339 -1.23791e-18)
(0.00614621 0.089463 -5.8051e-19)
(0.0528208 0.074848 -7.87779e-19)
(0.112115 0.0550093 2.15795e-19)
(0.183301 0.0310317 -6.41777e-19)
(0.265276 0.00432306 1.36195e-18)
(0.36001 -0.0172446 2.89427e-19)
(-0.0267674 0.0332248 4.79026e-20)
(-0.0472269 0.066407 6.69076e-19)
(-0.0396506 0.0791302 1.26317e-18)
(-0.00890272 0.0785812 3.8547e-19)
(0.0420789 0.069482 1.08701e-18)
(0.111489 0.0547662 6.06926e-20)
(0.197699 0.0361514 -1.78494e-20)
(0.29853 0.0146668 4.121e-19)
(0.409114 -0.0093129 3.66472e-19)
(0.540452 -0.0217374 -8.52359e-19)
(-0.0293123 0.0299266 -5.19035e-19)
(-0.0457365 0.0552887 -7.29337e-19)
(-0.026228 0.0620476 -1.03257e-18)
(0.0237978 0.0580578 1.19136e-20)
(0.100944 0.0480683 -4.97166e-19)
(0.202111 0.0349364 7.6035e-19)
(0.322951 0.0202294 -2.07401e-18)
(0.457946 0.00497315 9.17865e-19)
(0.596659 -0.0110575 3.68639e-19)
(0.752903 -0.0137779 8.63255e-19)
(-0.0312365 0.0268519 2.6272e-19)
(-0.0386119 0.0439391 -8.10465e-19)
(0.000623582 0.0449886 6.91303e-19)
(0.0796946 0.0387684 -2.61875e-19)
(0.193289 0.0301616 2.72964e-19)
(0.334447 0.0218474 5.88297e-19)
(0.493226 0.0147918 -7.61678e-19)
(0.659101 0.00949697 1.0642e-19)
(0.817733 0.00714486 -3.47957e-19)
(0.963595 -0.00214092 4.51258e-19)
(-0.0314126 0.0234558 3.51709e-19)
(-0.0225316 0.0322716 -7.15949e-19)
(0.046575 0.0292493 9.42353e-19)
(0.165825 0.023799 -5.70087e-19)
(0.324594 0.0205719 -1.99345e-19)
(0.50805 0.0212576 1.13467e-19)
(0.698378 0.0251172 6.27356e-20)
(0.880675 0.031664 7.64651e-19)
(1.03535 0.0370127 2.20632e-19)
(1.17903 0.0413111 6.17991e-19)
(-0.0284088 0.0192241 -3.06542e-19)
(0.00608282 0.0202486 9.10184e-19)
(0.116538 0.0162937 -7.40354e-19)
(0.285807 0.016435 -8.46988e-19)
(0.492426 0.0236509 1.1318e-18)
(0.71011 0.0368801 -8.35721e-19)
(0.914431 0.0526624 2.12007e-19)
(1.08915 0.0685017 -1.17323e-18)
(1.22218 0.0792285 8.47339e-19)
(1.3306 0.0899564 2.4778e-20)
(-0.0206487 0.0140057 -3.93399e-19)
(0.0508001 0.00861443 -3.25851e-19)
(0.213944 0.00862666 -6.72258e-19)
(0.438126 0.0204826 7.71367e-19)
(0.685008 0.0424545 -3.77325e-20)
(0.917661 0.0688465 4.69277e-19)
(1.11149 0.0936147 8.12322e-19)
(1.25663 0.113433 -2.40577e-19)
(1.35299 0.125005 -7.56955e-19)
(1.41476 0.134125 1.16438e-18)
(-0.00650966 0.00816477 -2.03742e-19)
(0.114765 -0.000624324 -2.05274e-19)
(0.33937 0.0100959 3.64464e-19)
(0.614256 0.0394306 -6.42483e-19)
(0.882505 0.077206 1.04276e-19)
(1.10494 0.113172 9.10807e-20)
(1.26659 0.140945 2.65603e-20)
(1.37017 0.158918 -1.46085e-20)
(1.42644 0.166496 -9.4892e-20)
(1.45297 0.170922 -9.70352e-19)
(0.0155732 0.00258554 8.38663e-19)
(0.199879 -0.00415984 -4.94852e-19)
(0.488552 0.0249824 6.4672e-21)
(0.798691 0.0745409 -6.94108e-19)
(1.06307 0.124555 -2.358e-19)
(1.25365 0.163606 2.16061e-19)
(1.37236 0.188376 1.4943e-19)
(1.4348 0.200597 -5.24596e-19)
(1.4592 0.202688 3.99209e-19)
(1.46131 0.202453 -4.07519e-19)
(0.0469136 -0.00136862 3.68264e-19)
(0.305601 0.00215876 -2.87127e-19)
(0.651373 0.0561386 1.10241e-18)
(0.973219 0.123773 1.08821e-19)
(1.21105 0.179203 2.3411e-19)
(1.3586 0.214936 9.77214e-19)
(1.43504 0.232883 -1.47805e-19)
(1.46449 0.238088 1.16351e-19)
(1.46672 0.234871 4.17265e-20)
(1.45578 0.230899 -4.90311e-20)
(0.0882667 -0.00190631 2.67168e-19)
(0.42782 0.0223279 5.31437e-19)
(0.81382 0.103552 -5.41232e-19)
(1.12333 0.18292 -1.72023e-19)
(1.32091 0.236553 -1.98057e-19)
(1.4245 0.264579 2.94186e-19)
(1.46571 0.274172 -1.42234e-19)
(1.47158 0.272517 3.69227e-19)
(1.4602 0.264915 1.17015e-19)
(1.44178 0.257808 -1.51884e-19)
(0.139445 0.00306171 -2.90804e-19)
(0.558645 0.0588443 2.23622e-19)
(0.9624 0.164597 -4.42142e-19)
(1.24165 0.247679 1.78032e-19)
(1.39464 0.293826 -1.73602e-19)
(1.45951 0.31183 -2.01421e-19)
(1.47418 0.312845 -1.50562e-19)
(1.46461 0.305004 1.61827e-19)
(1.44536 0.293732 -2.92984e-19)
(1.4237 0.283744 1.41508e-19)
(0.198975 0.0156197 -1.07476e-19)
(0.687886 0.11174 -1.77461e-19)
(1.08764 0.235436 7.96149e-20)
(1.32688 0.314693 5.9283e-21)
(1.43749 0.349573 5.70866e-20)
(1.47129 0.356674 7.1646e-20)
(1.46753 0.34953 6.15464e-20)
(1.44863 0.336246 -7.94797e-20)
(1.42532 0.321827 6.53859e-20)
(1.40234 0.308866 -8.06588e-20)
(0.26395 0.0373947 -6.87762e-20)
(0.805645 0.178675 -2.37416e-20)
(1.18471 0.312135 7.55528e-20)
(1.38115 0.381492 -3.36681e-20)
(1.4551 0.402959 7.64213e-20)
(1.46582 0.399179 -9.3101e-20)
(1.45026 0.384535 2.119e-20)
(1.42634 0.366427 2.08577e-20)
(1.4013 0.349047 -8.38442e-21)
(1.37837 0.332894 2.51475e-20)
(0.330231 0.0691072 -8.22091e-20)
(0.904358 0.255831 -2.84624e-19)
(1.25228 0.39105 -1.76464e-20)
(1.40793 0.446167 4.58147e-21)
(1.45245 0.45334 -2.70338e-19)
(1.44731 0.43921 3.36987e-20)
(1.42505 0.417771 -2.72196e-20)
(1.39904 0.395303 -6.33137e-20)
(1.37379 0.374991 1.30394e-19)
(1.35181 0.355435 -1.86848e-19)
(0.393008 0.110291 -4.62086e-20)
(0.979378 0.33883 6.07748e-19)
(1.29118 0.468888 6.5079e-20)
(1.41096 0.507095 -4.35517e-19)
(1.43346 0.500017 -4.24466e-20)
(1.41855 0.476337 -3.43498e-19)
(1.39342 0.448775 2.38854e-19)
(1.36737 0.422294 -8.5137e-20)
(1.34299 0.399005 1.49335e-19)
(1.32264 0.375985 -9.14043e-20)
(0.447571 0.159275 -2.60561e-19)
(1.0286 0.42329 2.19885e-19)
(1.30349 0.542701 -1.27534e-19)
(1.39377 0.562782 8.59688e-19)
(1.40116 0.542148 3.72258e-19)
(1.38141 0.50985 -8.2058e-20)
(1.35626 0.476795 2.71282e-19)
(1.33167 0.446601 -1.7082e-19)
(1.30906 0.42034 -4.96826e-20)
(1.29101 0.394006 2.59072e-19)
(0.490011 0.213394 -4.69734e-19)
(1.05182 0.50507 5.21535e-19)
(1.29189 0.609863 -8.49158e-19)
(1.3595 0.611787 1.18855e-19)
(1.35788 0.578745 2.09641e-19)
(1.33723 0.538834 -2.97832e-19)
(1.31423 0.500905 -3.55492e-19)
(1.29231 0.467303 1.61174e-19)
(1.27228 0.438193 -1.95778e-19)
(1.25706 0.408946 2.11879e-19)
(0.51764 0.269327 -1.18134e-19)
(1.05017 0.580359 -5.20658e-19)
(1.25937 0.668025 2.56547e-19)
(1.31096 0.652686 3.8441e-19)
(1.30554 0.608706 -2.08413e-19)
(1.28713 0.56227 -1.45732e-19)
(1.26802 0.520131 -1.19153e-19)
(1.24987 0.483462 -5.42857e-20)
(1.2333 0.451729 -3.63376e-21)
(1.2216 0.420161 1.36645e-19)
(0.529126 0.323477 1.42405e-19)
(1.02569 0.645735 -5.66154e-19)
(1.20893 0.715089 7.43593e-19)
(1.25063 0.684043 -4.00415e-19)
(1.24576 0.630789 1.21427e-19)
(1.23211 0.579009 -1.51657e-19)
(1.21842 0.533447 1.53109e-19)
(1.20526 0.49416 7.51689e-20)
(1.19333 0.460115 9.79175e-20)
(1.18603 0.42696 -1.33294e-19)
(0.524437 0.372344 -4.24709e-19)
(0.981082 0.698266 6.1533e-19)
(1.14359 0.749261 -2.73111e-20)
(1.18072 0.704475 -1.38912e-19)
(1.17979 0.643594 -1.55139e-19)
(1.17284 0.587571 3.02508e-20)
(1.166 0.539371 -8.58234e-20)
(1.15942 0.498012 1.77892e-20)
(1.15387 0.462188 -2.92182e-20)
(1.15201 0.428581 7.52372e-21)
(0.504672 0.41284 5.22012e-19)
(0.919576 0.735636 -1.71252e-19)
(1.06637 0.769216 -1.05486e-19)
(1.10324 0.712952 2.56537e-19)
(1.10865 0.64594 -1.41248e-19)
(1.10955 0.586321 8.43134e-21)
(1.11055 0.535608 -6.95327e-20)
(1.11215 0.492099 -3.70802e-20)
(1.1148 0.455011 -5.19058e-20)
(1.11862 0.423191 1.63483e-20)
(0.471841 0.442479 -3.62054e-19)
(0.844792 0.756184 1.61591e-19)
(0.980394 0.774183 -8.28261e-20)
(1.02032 0.709159 -4.35618e-20)
(1.03345 0.637748 4.53349e-21)
(1.04241 0.575062 1.78716e-19)
(1.05123 0.521075 -5.53656e-20)
(1.06137 0.473282 4.95134e-20)
(1.07223 0.432383 8.03549e-20)
(1.07921 0.403547 2.33254e-19)
(0.428598 0.459428 1.67312e-20)
(0.760632 0.758803 -3.83249e-20)
(0.888974 0.763708 3.46793e-19)
(0.934419 0.69317 -6.83352e-20)
(0.956059 0.619999 4.07426e-19)
(0.972759 0.556362 2.51712e-19)
(0.988348 0.500562 -5.60966e-19)
(1.00533 0.448156 8.40069e-19)
(1.02191 0.396747 -1.75054e-19)
(1.02275 0.353958 2.99719e-19)
(0.377957 0.462503 -6.05765e-20)
(0.671085 0.742883 -1.54534e-19)
(0.795466 0.737403 1.63547e-19)
(0.848348 0.664508 -2.83078e-19)
(0.879308 0.592292 -9.18705e-19)
(0.904044 0.530865 -3.65801e-19)
(0.925895 0.478482 -3.00537e-19)
(0.946588 0.432326 1.51933e-19)
(0.961954 0.392593 1.17475e-18)
(0.959842 0.363562 -2.09722e-19)
(0.323062 0.45119 1.16535e-19)
(0.580025 0.708445 -4.09162e-19)
(0.703014 0.695356 9.53142e-20)
(0.764595 0.622825 -6.54251e-19)
(0.805614 0.552912 1.36625e-18)
(0.839421 0.493457 -1.55716e-19)
(0.868873 0.442119 6.92475e-19)
(0.895052 0.396178 -9.32868e-19)
(0.91423 0.356705 2.89483e-19)
(0.917762 0.330339 3.89027e-20)
(0.267048 0.425609 7.03e-20)
(0.491184 0.656131 4.57365e-19)
(0.614581 0.638357 -1.45047e-18)
(0.685132 0.569408 6.5928e-19)
(0.735559 0.504735 2.93609e-21)
(0.777348 0.450599 -2.0911e-19)
(0.813343 0.404719 2.53034e-19)
(0.844732 0.364476 -2.37712e-19)
(0.868669 0.329721 -7.79691e-19)
(0.878909 0.30426 -1.88613e-19)
(0.212897 0.386407 3.08149e-19)
(0.408104 0.586956 3.20335e-19)
(0.533282 0.566958 1.2654e-18)
(0.612983 0.503797 -6.74221e-19)
(0.672663 0.445455 1.31945e-18)
(0.722172 0.396702 -2.71255e-19)
(0.764362 0.35548 -2.69007e-19)
(0.800813 0.319831 3.03093e-19)
(0.829685 0.289737 1.91623e-19)
(0.846304 0.267704 6.01591e-19)
(0.163282 0.334781 -3.57425e-19)
(0.333754 0.50267 9.22439e-20)
(0.461267 0.482914 2.76064e-20)
(0.549344 0.428082 7.00741e-19)
(0.617269 0.378203 -1.65608e-18)
(0.673692 0.336817 2.72702e-19)
(0.721494 0.301991 5.55372e-19)
(0.762522 0.271932 -6.4639e-19)
(0.795876 0.246329 2.19042e-19)
(0.818452 0.226887 -8.82079e-19)
(0.120601 0.272346 7.84217e-20)
(0.270948 0.405291 3.62234e-19)
(0.400996 0.387706 1.37158e-19)
(0.496368 0.34294 1.70184e-19)
(0.571288 0.302594 3.04385e-19)
(0.633532 0.269243 8.47235e-19)
(0.686087 0.241339 -9.88534e-19)
(0.731048 0.217456 -5.27044e-19)
(0.768318 0.197133 8.56021e-20)
(0.796063 0.181334 5.77223e-19)
(0.0868018 0.201095 -4.76367e-19)
(0.221839 0.297337 -4.69671e-20)
(0.354162 0.283594 -3.7986e-19)
(0.455355 0.250521 5.01647e-20)
(0.535774 0.220928 -2.88645e-19)
(0.602564 0.196527 -3.11979e-19)
(0.658801 0.176156 -4.38908e-19)
(0.706815 0.158767 1.12965e-18)
(0.747222 0.143934 1.84976e-19)
(0.779162 0.132209 -2.47542e-19)
(0.0634055 0.123325 2.57122e-19)
(0.188134 0.181582 2.91361e-19)
(0.322149 0.172849 1.07018e-19)
(0.427384 0.152548 -5.47817e-19)
(0.511591 0.134466 -2.39725e-19)
(0.581509 0.119589 -4.95422e-20)
(0.640276 0.107199 9.10331e-20)
(0.690392 0.0966503 7.00537e-20)
(0.732996 0.0876378 -5.12117e-19)
(0.767881 0.0804363 2.56895e-19)
(0.0514465 0.0415572 -1.35749e-19)
(0.170992 0.0610617 -1.30541e-19)
(0.305909 0.0580693 9.83589e-20)
(0.413215 0.0512271 8.18598e-20)
(0.49935 0.045146 7.93448e-20)
(0.570858 0.040147 1.13515e-19)
(0.630911 0.0359885 -6.84278e-21)
(0.682103 0.0324525 -1.35753e-19)
(0.725845 0.02943 1.22639e-19)
(0.762253 0.0270039 -1.60586e-19)
(0.0514466 -0.0415594 -1.37333e-19)
(0.170992 -0.061065 -1.25193e-19)
(0.30591 -0.0580727 1.08418e-19)
(0.413215 -0.0512302 1.98188e-19)
(0.49935 -0.0451489 1.2322e-19)
(0.570858 -0.0401498 -1.54463e-19)
(0.630911 -0.0359911 -7.84621e-20)
(0.682103 -0.0324549 3.4046e-20)
(0.725845 -0.0294324 7.16623e-20)
(0.762253 -0.027006 -3.70147e-20)
(0.0634057 -0.123328 3.263e-19)
(0.188134 -0.181586 -3.47794e-19)
(0.32215 -0.172852 -2.77941e-20)
(0.427385 -0.152551 1.71162e-19)
(0.511591 -0.134469 -7.27258e-19)
(0.581509 -0.119592 2.93853e-19)
(0.640276 -0.107202 2.86068e-19)
(0.690393 -0.0966528 -3.242e-19)
(0.732996 -0.0876401 2.9643e-19)
(0.767882 -0.0804385 -1.14968e-19)
(0.0868022 -0.201097 -5.46298e-20)
(0.221839 -0.297341 -1.56148e-21)
(0.354162 -0.283597 -8.81818e-19)
(0.455356 -0.250524 -2.59209e-19)
(0.535774 -0.220931 -2.06921e-20)
(0.602564 -0.19653 -3.82285e-19)
(0.658802 -0.176159 6.79804e-19)
(0.706816 -0.158769 -2.51703e-20)
(0.747223 -0.143936 3.58774e-19)
(0.779162 -0.132211 -2.7088e-19)
(0.120601 -0.272348 9.11885e-20)
(0.270949 -0.405294 -3.60662e-19)
(0.400997 -0.387709 1.05714e-18)
(0.496369 -0.342943 1.42962e-19)
(0.571289 -0.302597 6.51289e-19)
(0.633533 -0.269246 -5.99167e-19)
(0.686088 -0.241341 6.0098e-19)
(0.731049 -0.217459 -4.18797e-19)
(0.768319 -0.197135 -1.78787e-19)
(0.796063 -0.181336 1.28309e-19)
(0.163283 -0.334783 7.79147e-19)
(0.333756 -0.502673 1.8188e-20)
(0.461268 -0.482917 -1.08536e-18)
(0.549345 -0.428085 -2.96181e-19)
(0.617271 -0.378206 9.42755e-19)
(0.673693 -0.33682 -5.2305e-19)
(0.721495 -0.301993 -5.71922e-19)
(0.762524 -0.271934 4.97624e-19)
(0.795877 -0.246331 -3.23771e-19)
(0.818453 -0.226889 -6.14401e-20)
(0.212898 -0.386409 -1.19211e-19)
(0.408106 -0.58696 -7.43361e-21)
(0.533283 -0.566961 1.13389e-18)
(0.612985 -0.5038 6.26868e-19)
(0.672665 -0.445457 -7.00072e-19)
(0.722174 -0.396705 8.1377e-19)
(0.764363 -0.355482 -8.2751e-19)
(0.800815 -0.319833 8.40336e-20)
(0.829686 -0.289739 2.31599e-19)
(0.846305 -0.267706 4.58343e-19)
(0.267049 -0.425611 1.00837e-19)
(0.491186 -0.656134 1.41029e-19)
(0.614583 -0.63836 1.60505e-19)
(0.685134 -0.56941 -5.54979e-19)
(0.735561 -0.504737 -9.4774e-19)
(0.777349 -0.450601 1.9389e-19)
(0.813344 -0.404721 5.37201e-19)
(0.844733 -0.364478 -1.47434e-19)
(0.86867 -0.329723 8.3991e-19)
(0.87891 -0.304262 -7.15996e-19)
(0.323064 -0.451192 -5.3922e-19)
(0.580028 -0.708448 1.26397e-19)
(0.703016 -0.695359 -5.61877e-19)
(0.764598 -0.622828 8.87006e-19)
(0.805616 -0.552914 4.36105e-19)
(0.839423 -0.493459 5.82191e-19)
(0.868875 -0.442121 -1.24055e-19)
(0.895054 -0.39618 4.89226e-19)
(0.914231 -0.356707 -1.00065e-18)
(0.917763 -0.33034 -2.27264e-19)
(0.377958 -0.462505 1.14482e-19)
(0.671088 -0.742886 -2.43654e-19)
(0.795469 -0.737406 -4.48974e-19)
(0.848351 -0.664511 -2.46217e-19)
(0.879311 -0.592294 -6.34815e-19)
(0.904047 -0.530867 -6.93689e-20)
(0.925897 -0.478484 5.67212e-20)
(0.94659 -0.432327 -2.13606e-19)
(0.961956 -0.392594 -2.42147e-19)
(0.959844 -0.363563 5.46049e-19)
(0.4286 -0.45943 2.27919e-20)
(0.760635 -0.758806 7.15489e-20)
(0.888977 -0.76371 3.43795e-19)
(0.934422 -0.693172 4.86093e-20)
(0.956061 -0.620001 2.54243e-19)
(0.972762 -0.556363 -3.15748e-19)
(0.98835 -0.500563 9.4648e-19)
(1.00534 -0.448157 -4.00092e-19)
(1.02192 -0.396748 -1.966e-19)
(1.02275 -0.353959 -5.11314e-19)
(0.471843 -0.442481 5.4983e-22)
(0.844795 -0.756187 -1.41487e-19)
(0.980398 -0.774185 4.92079e-20)
(1.02032 -0.709161 2.7254e-20)
(1.03345 -0.63775 -4.04661e-20)
(1.04241 -0.575064 -1.33922e-19)
(1.05124 -0.521076 1.67932e-19)
(1.06138 -0.473283 -7.06272e-20)
(1.07223 -0.432384 7.77438e-20)
(1.07921 -0.403548 -1.36272e-19)
(0.504674 -0.412842 1.72689e-19)
(0.91958 -0.735638 -3.58038e-19)
(1.06637 -0.769218 2.73677e-19)
(1.10325 -0.712953 -3.49463e-20)
(1.10865 -0.645942 -6.28103e-20)
(1.10955 -0.586322 2.54436e-20)
(1.11055 -0.535609 -2.47538e-21)
(1.11215 -0.4921 -8.73024e-20)
(1.1148 -0.455012 -5.69294e-20)
(1.11862 -0.423192 -8.87866e-20)
(0.52444 -0.372346 -2.35374e-19)
(0.981086 -0.698268 6.24059e-19)
(1.14359 -0.749263 -3.30421e-19)
(1.18072 -0.704476 -1.84782e-19)
(1.17979 -0.643595 2.1561e-19)
(1.17284 -0.587571 -7.92923e-20)
(1.166 -0.539372 2.75042e-20)
(1.15943 -0.498012 -2.94632e-20)
(1.15388 -0.462189 7.58384e-21)
(1.15201 -0.428581 4.51729e-21)
(0.52913 -0.323479 -3.9098e-19)
(1.02569 -0.645737 -2.45164e-19)
(1.20893 -0.715091 -4.10464e-19)
(1.25064 -0.684044 4.52739e-19)
(1.24576 -0.630789 -1.91139e-20)
(1.23211 -0.57901 1.42419e-19)
(1.21842 -0.533448 1.88996e-19)
(1.20526 -0.49416 -6.06519e-20)
(1.19333 -0.460115 -9.89625e-20)
(1.18603 -0.42696 1.48846e-19)
(0.517643 -0.269329 -2.26372e-19)
(1.05017 -0.580361 -2.3266e-19)
(1.25937 -0.668027 2.87758e-19)
(1.31096 -0.652687 -4.17013e-19)
(1.30555 -0.608706 7.67214e-20)
(1.28714 -0.56227 3.74279e-20)
(1.26803 -0.520131 4.96332e-20)
(1.24987 -0.483462 -2.92384e-20)
(1.23331 -0.451728 -4.43619e-20)
(1.22161 -0.42016 -2.5218e-19)
(0.490015 -0.213396 9.2163e-19)
(1.05183 -0.505072 -5.40323e-19)
(1.2919 -0.609864 1.18854e-20)
(1.3595 -0.611788 -5.59147e-19)
(1.35788 -0.578745 -1.38703e-19)
(1.33724 -0.538833 1.20267e-19)
(1.31423 -0.500905 7.84673e-20)
(1.29231 -0.467302 -2.58307e-19)
(1.27229 -0.438192 1.40477e-19)
(1.25706 -0.408945 -1.76117e-19)
(0.447575 -0.159276 4.16876e-19)
(1.02861 -0.423292 -3.06084e-19)
(1.30349 -0.542702 1.0565e-18)
(1.39377 -0.562782 6.40305e-20)
(1.40116 -0.542147 1.9267e-19)
(1.38141 -0.509848 6.45667e-19)
(1.35626 -0.476794 -1.22697e-19)
(1.33167 -0.4466 4.06262e-20)
(1.30906 -0.420339 -4.30222e-21)
(1.29101 -0.394005 -2.48402e-20)
(0.393012 -0.110292 2.95176e-19)
(0.979386 -0.338832 5.77469e-19)
(1.29118 -0.468888 -5.14231e-19)
(1.41097 -0.507094 -1.26242e-19)
(1.43347 -0.500015 -1.30774e-19)
(1.41855 -0.476335 2.44243e-19)
(1.39342 -0.448773 -1.0945e-19)
(1.36737 -0.422291 2.54494e-19)
(1.34299 -0.399003 6.56488e-20)
(1.32265 -0.375983 -8.97998e-20)
(0.330236 -0.0691077 -3.18596e-19)
(0.904366 -0.255832 2.3016e-19)
(1.25229 -0.39105 -4.46966e-19)
(1.40793 -0.446166 1.68222e-19)
(1.45246 -0.453338 -1.54801e-19)
(1.44731 -0.439207 -1.69785e-19)
(1.42505 -0.417769 -1.23418e-19)
(1.39905 -0.3953 1.32054e-19)
(1.37379 -0.374988 -2.27853e-19)
(1.35181 -0.355432 1.1363e-19)
(0.263954 -0.037395 -1.12571e-19)
(0.805654 -0.178675 -1.82587e-19)
(1.18472 -0.312135 8.1103e-20)
(1.38115 -0.38149 6.91603e-21)
(1.45511 -0.402957 5.33858e-20)
(1.46583 -0.399175 6.89653e-20)
(1.45026 -0.384532 5.50028e-20)
(1.42635 -0.366424 -7.24539e-20)
(1.4013 -0.349043 5.80691e-20)
(1.37838 -0.33289 -7.22917e-20)
(0.198979 -0.0156197 -6.49123e-20)
(0.687896 -0.11174 -2.09578e-20)
(1.08765 -0.235435 7.62346e-20)
(1.32689 -0.314691 -3.36273e-20)
(1.43749 -0.349569 8.21059e-20)
(1.4713 -0.35667 -9.82838e-20)
(1.46753 -0.349526 2.45519e-20)
(1.44864 -0.336242 1.99575e-20)
(1.42533 -0.321822 -6.95373e-21)
(1.40234 -0.308861 2.47456e-20)
(0.139449 -0.00306146 -7.01336e-20)
(0.558655 -0.0588442 -2.68685e-19)
(0.962412 -0.164596 -2.09981e-20)
(1.24166 -0.247677 7.35911e-21)
(1.39465 -0.293823 -3.07678e-19)
(1.45952 -0.311826 3.13084e-20)
(1.47419 -0.312839 -3.14863e-20)
(1.46462 -0.304999 -7.92615e-20)
(1.44536 -0.293726 1.67717e-19)
(1.4237 -0.283739 -2.40015e-19)
(0.0882696 0.00190669 -3.67665e-20)
(0.427829 -0.0223272 5.65534e-19)
(0.813833 -0.103551 7.75836e-20)
(1.12334 -0.182918 -4.61246e-19)
(1.32092 -0.236549 -5.59506e-20)
(1.42451 -0.264574 -4.58662e-19)
(1.46572 -0.274166 3.36992e-19)
(1.47158 -0.272511 -1.27547e-19)
(1.46021 -0.264908 2.35698e-19)
(1.44178 -0.257802 -1.58638e-19)
(0.0469159 0.00136905 -2.29559e-19)
(0.30561 -0.0021577 2.20327e-19)
(0.651386 -0.0561372 -1.47988e-19)
(0.973234 -0.12377 9.99101e-19)
(1.21107 -0.179199 5.00313e-19)
(1.35861 -0.21493 -1.20962e-19)
(1.43504 -0.232876 4.57935e-19)
(1.46449 -0.238081 -2.80659e-19)
(1.46673 -0.234863 -7.96145e-20)
(1.45578 -0.230891 4.85406e-19)
(0.0155749 -0.00258515 -4.24619e-19)
(0.199886 0.00416109 5.19674e-19)
(0.488565 -0.0249807 -9.65278e-19)
(0.798707 -0.0745384 1.57419e-19)
(1.06308 -0.124551 3.81506e-19)
(1.25367 -0.163601 -4.57149e-19)
(1.37237 -0.188369 -7.63876e-19)
(1.43481 -0.200589 3.93706e-19)
(1.45921 -0.202679 -4.70353e-19)
(1.46131 -0.202444 5.83688e-19)
(-0.00650852 -0.00816448 -1.03479e-19)
(0.114771 0.000625507 -5.33545e-19)
(0.339382 -0.0100941 2.47801e-19)
(0.614272 -0.039428 6.0696e-19)
(0.882522 -0.0772023 -3.11234e-19)
(1.10495 -0.113167 -2.95592e-19)
(1.2666 -0.140938 -4.81842e-19)
(1.37018 -0.158909 -1.95351e-19)
(1.42645 -0.166486 -3.16865e-20)
(1.45298 -0.170911 5.74965e-19)
(-0.0206481 -0.0140057 1.73708e-19)
(0.0508042 -0.00861364 -7.2124e-19)
(0.213953 -0.00862517 1.19463e-18)
(0.438141 -0.0204803 -6.28886e-19)
(0.685027 -0.0424509 4.03338e-19)
(0.917681 -0.0688414 -4.78428e-19)
(1.11151 -0.0936077 5.13681e-19)
(1.25664 -0.113424 4.2801e-19)
(1.353 -0.124995 8.32912e-19)
(1.41477 -0.134113 -1.06257e-18)
(-0.0284086 -0.0192243 -5.36564e-19)
(0.00608552 -0.0202486 9.2364e-19)
(0.116545 -0.016293 1.73294e-20)
(0.28582 -0.0164333 -3.00992e-19)
(0.492445 -0.0236478 -1.46228e-19)
(0.710132 -0.0368752 1.19763e-19)
(0.914454 -0.0526555 -8.42754e-19)
(1.08917 -0.0684927 5.98564e-19)
(1.2222 -0.0792177 -7.53818e-19)
(1.33061 -0.0899434 -2.41182e-19)
(-0.0314128 -0.0234566 9.45116e-19)
(-0.0225301 -0.0322728 -2.44386e-19)
(0.0465805 -0.0292501 -4.55258e-19)
(0.165836 -0.0237985 1.18076e-18)
(0.324611 -0.0205696 -1.12414e-18)
(0.508071 -0.0212531 6.13031e-19)
(0.698403 -0.0251104 6.34505e-19)
(0.8807 -0.0316547 1.63985e-19)
(1.03537 -0.0370011 1.6475e-19)
(1.17905 -0.0412966 -1.56674e-19)
(-0.0312373 -0.0268535 -9.23275e-19)
(-0.0386115 -0.0439418 7.44029e-19)
(0.000627433 -0.044991 -6.2804e-19)
(0.0797034 -0.0387694 7.69096e-19)
(0.193303 -0.0301604 -2.18023e-19)
(0.334467 -0.0218435 -7.62332e-19)
(0.493251 -0.0147849 2.10907e-19)
(0.659129 -0.00948691 -3.20763e-19)
(0.817762 -0.00713184 -3.5663e-19)
(0.963623 0.00215882 -8.1315e-19)
(-0.0293137 -0.029929 -1.20886e-18)
(-0.0457373 -0.0552929 7.99274e-19)
(-0.0262258 -0.0620516 -1.50778e-18)
(0.0238043 -0.0580599 2.60033e-19)
(0.100956 -0.0480677 -9.82845e-19)
(0.202128 -0.0349325 -5.86815e-19)
(0.322974 -0.020222 1.37619e-18)
(0.457974 -0.00496217 -1.86597e-18)
(0.596689 0.0110719 3.56516e-19)
(0.752938 0.0137968 -4.85721e-19)
(-0.0267693 -0.0332282 6.03515e-19)
(-0.0472287 -0.0664124 2.28354e-19)
(-0.0396502 -0.0791349 -7.66466e-20)
(-0.00889889 -0.0785835 5.58128e-19)
(0.0420869 -0.0694808 1.61273e-18)
(0.111501 -0.0547612 5.554e-19)
(0.197717 -0.0361422 5.68086e-19)
(0.298553 -0.0146537 -1.90449e-19)
(0.40914 0.00933007 -1.86718e-18)
(0.540485 0.0217579 3.44952e-19)
(-0.0242582 -0.03693 -1.8317e-19)
(-0.0458062 -0.0767965 4.82568e-19)
(-0.0452809 -0.0944519 -1.21375e-19)
(-0.0270635 -0.0970347 8.09305e-19)
(0.00614974 -0.0894595 -1.7934e-18)
(0.0528274 -0.0748398 1.60723e-19)
(0.112125 -0.0549963 -8.36087e-19)
(0.183315 -0.0310141 1.24111e-18)
(0.265294 -0.00430114 -3.47305e-19)
(0.360033 0.0172692 -3.85996e-20)
(-0.0219286 -0.0405947 -1.22328e-19)
(-0.0432839 -0.085117 -5.78803e-19)
(-0.0476847 -0.105693 1.40879e-18)
(-0.0386075 -0.110127 -6.98546e-19)
(-0.0181826 -0.103678 3.87662e-20)
(0.0122824 -0.0896881 2.09071e-19)
(0.0521295 -0.0701445 -2.09913e-19)
(0.101103 -0.0463079 2.49072e-19)
(0.158941 -0.0197846 8.82581e-19)
(0.223101 0.00486337 1.79839e-19)
(-0.0196031 -0.0431943 -2.89504e-19)
(-0.0405803 -0.0894658 -2.66793e-19)
(-0.0497116 -0.110516 -1.11125e-18)
(-0.0488532 -0.115258 5.71639e-19)
(-0.0391891 -0.109286 -1.14288e-18)
(-0.0215763 -0.09609 2.46883e-19)
(0.00356632 -0.0777903 2.7474e-19)
(0.0360497 -0.0557739 -3.03242e-19)
(0.0750606 -0.031533 -1.972e-19)
(0.118249 -0.00854105 -6.37879e-19)
(-0.017074 -0.0434153 2.3456e-19)
(-0.0380364 -0.0879316 -4.56863e-20)
(-0.0525555 -0.107192 -2.50654e-21)
(-0.0600853 -0.11107 -5.2788e-19)
(-0.0606391 -0.105265 1.27503e-18)
(-0.0545153 -0.0932073 -1.91651e-19)
(-0.0418314 -0.0769932 -4.82154e-19)
(-0.0228851 -0.0579959 5.76149e-19)
(0.000974391 -0.0375669 -2.04314e-19)
(0.0295835 -0.0185889 8.29072e-19)
(-0.0143356 -0.0401055 -4.4448e-20)
(-0.035772 -0.0792371 -2.13047e-19)
(-0.056232 -0.0950704 -7.92624e-20)
(-0.0722045 -0.0976008 -9.60328e-20)
(-0.0825134 -0.0921737 -1.97782e-19)
(-0.086969 -0.0818771 -6.14031e-19)
(-0.0854743 -0.0685699 7.50739e-19)
(-0.0785215 -0.0534501 4.37893e-19)
(-0.067563 -0.0376591 -7.39635e-20)
(-0.0505081 -0.0233824 -5.07649e-19)
(-0.0116531 -0.0326944 2.53482e-19)
(-0.0338916 -0.0631835 3.55648e-20)
(-0.0601106 -0.0747056 2.27981e-19)
(-0.0837611 -0.0760154 -2.74063e-20)
(-0.102645 -0.0715233 1.89954e-19)
(-0.11626 -0.0636743 2.09556e-19)
(-0.124448 -0.0539017 3.1204e-19)
(-0.127918 -0.0431022 -8.67499e-19)
(-0.127926 -0.0321097 -1.60381e-19)
(-0.120861 -0.0223451 2.11757e-19)
(-0.00947207 -0.021447 -1.28447e-19)
(-0.0325285 -0.0407809 -1.48815e-19)
(-0.0633446 -0.0476934 -6.77968e-20)
(-0.0928771 -0.0482089 3.11796e-19)
(-0.118206 -0.0452413 1.45634e-19)
(-0.138687 -0.0403526 2.87416e-20)
(-0.154213 -0.0344319 -6.12676e-20)
(-0.165671 -0.0280173 -4.66656e-20)
(-0.174053 -0.0215953 4.01465e-19)
(-0.174992 -0.015922 -2.02733e-19)
(-0.00824243 -0.0074769 6.55559e-20)
(-0.0318095 -0.0140953 6.62499e-20)
(-0.0651809 -0.0163876 -5.30754e-20)
(-0.09791 -0.016505 -4.61123e-20)
(-0.126711 -0.0154665 -4.58197e-20)
(-0.150901 -0.0138082 -7.1796e-20)
(-0.170436 -0.0118294 1.45237e-21)
(-0.186295 -0.00970697 9.52504e-20)
(-0.199306 -0.00759788 -9.50616e-20)
(-0.204832 -0.00573438 1.28486e-19)
(-0.114655 -0.00795228 4.8491e-21)
(0.0074267 -0.0158974 7.1619e-22)
(0.419667 -0.014273 -4.09893e-22)
(0.668973 -0.00919628 1.7198e-22)
(0.839797 -0.0051261 3.16309e-23)
(0.925765 -0.00253075 -6.19881e-23)
(0.965342 -0.001198 -8.77166e-23)
(0.984568 -0.000548181 2.92849e-23)
(0.9927 -0.000260305 -2.34106e-24)
(0.997845 -0.000101433 2.19204e-23)
(-0.0309648 -0.0248013 9.21587e-21)
(0.0586071 -0.0459268 2.62714e-21)
(0.4436 -0.0418719 1.42376e-21)
(0.680788 -0.0271825 -4.04981e-21)
(0.844983 -0.015193 -3.29127e-22)
(0.927875 -0.00751641 2.97761e-22)
(0.966124 -0.00356525 -3.39687e-22)
(0.984836 -0.00163612 -8.94684e-23)
(0.992791 -0.000780809 -1.86979e-22)
(0.997868 -0.000305001 -1.89289e-23)
(0.114535 -0.0443502 7.54617e-21)
(0.1538 -0.0716611 -8.03695e-21)
(0.48947 -0.0669304 -5.27431e-22)
(0.703578 -0.0440281 3.95047e-21)
(0.855056 -0.024707 -3.21653e-22)
(0.931996 -0.0122515 2.53178e-22)
(0.96766 -0.0058285 1.25254e-22)
(0.985364 -0.00268495 -3.28537e-23)
(0.99297 -0.00128731 1.29777e-22)
(0.997916 -0.000504679 -2.56449e-23)
(0.288317 -0.0677422 -1.53833e-20)
(0.279109 -0.0923518 -1.57183e-20)
(0.552936 -0.0883285 -2.20181e-21)
(0.735565 -0.0591107 -2.32976e-21)
(0.869376 -0.0333545 5.36711e-21)
(0.937916 -0.016589 -1.66927e-21)
(0.969884 -0.00792484 9.99948e-23)
(0.986135 -0.00367045 -1.45742e-22)
(0.993234 -0.00177092 1.51548e-22)
(0.997987 -0.000697949 1.09934e-23)
(0.46054 -0.0944156 3.69875e-20)
(0.417975 -0.108467 1.17247e-20)
(0.627704 -0.105536 1.50212e-21)
(0.774118 -0.0719856 6.28913e-21)
(0.886969 -0.0409039 -4.35943e-21)
(0.9453 -0.0204144 -1.25927e-21)
(0.972695 -0.00980245 -1.0138e-21)
(0.987122 -0.00457175 -2.40448e-22)
(0.993578 -0.00222366 -3.61288e-22)
(0.99808 -0.000882456 -4.78252e-23)
(0.615748 -0.122028 -1.31089e-20)
(0.557177 -0.120295 1.86157e-20)
(0.707127 -0.118277 1.88335e-21)
(0.816204 -0.0823571 -8.24935e-21)
(0.906635 -0.0472194 2.09064e-21)
(0.95372 -0.0236584 1.62609e-21)
(0.975956 -0.0114268 1.07947e-21)
(0.988284 -0.00537375 2.91875e-22)
(0.993989 -0.00263933 1.54221e-22)
(0.998193 -0.00105624 7.0277e-23)
(0.752635 -0.148816 -1.60394e-20)
(0.689534 -0.127864 -2.52568e-20)
(0.785864 -0.126744 1.07968e-21)
(0.858989 -0.0902265 2.62719e-21)
(0.927146 -0.052287 -2.27643e-21)
(0.96271 -0.026298 7.15501e-22)
(0.979504 -0.0127802 -9.91389e-22)
(0.98957 -0.00606748 -3.35349e-22)
(0.994454 -0.00301382 5.68697e-23)
(0.998322 -0.0012179 2.41639e-23)
(0.876924 -0.177079 4.17981e-20)
(0.812331 -0.135006 5.52395e-21)
(0.860394 -0.133513 -4.39284e-22)
(0.900261 -0.0964616 4.57251e-21)
(0.947427 -0.0562483 -3.57559e-21)
(0.971821 -0.0283195 2.96252e-21)
(0.983172 -0.0138402 1.47518e-21)
(0.990923 -0.00664043 4.99149e-22)
(0.994953 -0.00334108 4.10082e-22)