1.45 	0 	0 	0.138048 	-0.0320197 	2.73364e-21
2.35 	0 	0 	0.573853 	-0.0157024 	-1.4818e-21
