1.45 	0 	0 	-0.0371017
2.35 	0 	0 	0.0265093
