1.45 	0 	0 	0.313457 	-0.0380233 	1.14895e-21
2.35 	0 	0 	0.738077 	-0.0110092 	-8.75191e-22
