/*--------------------------------*- C++ -*----------------------------------*\
  =========                 |
  \\      /  F ield         | OpenFOAM: The Open Source CFD Toolbox
   \\    /   O peration     | Website:  https://openfoam.org
    \\  /    A nd           | Version:  6.0
     \\/     M anipulation  |
\*---------------------------------------------------------------------------*/
FoamFile
{
    version     2.0;
    format      ascii;
    class       volScalarField;
    location    "2";
    object      p;
}
// * * * * * * * * * * * * * * * * * * * * * * * * * * * * * * * * * * * * * //

dimensions      [0 2 -2 0 0 0 0];

internalField   nonuniform List<scalar> 
2000
(
-0.349774
-0.364466
-0.375621
-0.385997
-0.393016
-0.393074
-0.384189
-0.366704
-0.343369
-0.31679
-0.361667
-0.375049
-0.386102
-0.397097
-0.405258
-0.406774
-0.399192
-0.381931
-0.356916
-0.328214
-0.382456
-0.393322
-0.40394
-0.415768
-0.425729
-0.429714
-0.424591
-0.408438
-0.381514
-0.349125
-0.407365
-0.41473
-0.424168
-0.436284
-0.447771
-0.454299
-0.452138
-0.438281
-0.41108
-0.374855
-0.431652
-0.434919
-0.442078
-0.453169
-0.464928
-0.473029
-0.473338
-0.462248
-0.436965
-0.39841
-0.452127
-0.45127
-0.455084
-0.46358
-0.473955
-0.482163
-0.483835
-0.474944
-0.452624
-0.41375
-0.467775
-0.463371
-0.463287
-0.468093
-0.475844
-0.482944
-0.484888
-0.477162
-0.457317
-0.419454
-0.479498
-0.472496
-0.468704
-0.469661
-0.474394
-0.479684
-0.480848
-0.473047
-0.454219
-0.418042
-0.489415
-0.480744
-0.474032
-0.471814
-0.473758
-0.476586
-0.475226
-0.465002
-0.444458
-0.410226
-0.500049
-0.49029
-0.481641
-0.477205
-0.476566
-0.475802
-0.469252
-0.452555
-0.424794
-0.389524
-0.51356
-0.502819
-0.492963
-0.486889
-0.483285
-0.477375
-0.463482
-0.437894
-0.399073
-0.34986
-0.531248
-0.519216
-0.508351
-0.500465
-0.492756
-0.480001
-0.45771
-0.424196
-0.380567
-0.329052
-0.553518
-0.539637
-0.527407
-0.516787
-0.503358
-0.482421
-0.451723
-0.411969
-0.365521
-0.31507
-0.580176
-0.563814
-0.54942
-0.534554
-0.513669
-0.483855
-0.445624
-0.401541
-0.354752
-0.307612
-0.610697
-0.591216
-0.573516
-0.552437
-0.522554
-0.48383
-0.439245
-0.392291
-0.345858
-0.301218
-0.644216
-0.620981
-0.598461
-0.568968
-0.529028
-0.481912
-0.432224
-0.383446
-0.337671
-0.295291
-0.679317
-0.651734
-0.622445
-0.582488
-0.532119
-0.477534
-0.423875
-0.373911
-0.328684
-0.287768
-0.713823
-0.681436
-0.643105
-0.591232
-0.530811
-0.469941
-0.413327
-0.362655
-0.31792
-0.278289
-0.744797
-0.707313
-0.657808
-0.593474
-0.524046
-0.458226
-0.39958
-0.348585
-0.304321
-0.265812
-0.768852
-0.726028
-0.663978
-0.587664
-0.510781
-0.441433
-0.381655
-0.330765
-0.287148
-0.249972
-0.782607
-0.734156
-0.659339
-0.572501
-0.490068
-0.418661
-0.358663
-0.308374
-0.265711
-0.23016
-0.783044
-0.728703
-0.642099
-0.546974
-0.461117
-0.389152
-0.3299
-0.280833
-0.239629
-0.206178
-0.767691
-0.707468
-0.611053
-0.510404
-0.423351
-0.352348
-0.294862
-0.247747
-0.208632
-0.17781
-0.734702
-0.669141
-0.565635
-0.462493
-0.376488
-0.307956
-0.253298
-0.208959
-0.172672
-0.145038
-0.682936
-0.613271
-0.505892
-0.403372
-0.320614
-0.256043
-0.205282
-0.164584
-0.131907
-0.108041
-0.612071
-0.540187
-0.432407
-0.333548
-0.25617
-0.197062
-0.151326
-0.115227
-0.0870643
-0.0677156
-0.522708
-0.450941
-0.346196
-0.253767
-0.183727
-0.131581
-0.0921671
-0.0619525
-0.0396151
-0.0258683
-0.416439
-0.347307
-0.248722
-0.16496
-0.103725
-0.0597138
-0.0279139
-0.00531651
0.00920457
0.0160525
-0.295834
-0.231811
-0.142069
-0.0685643
-0.0168042
0.0188526
0.0427067
0.0566684
0.0618536
0.0611701
-0.164286
-0.107655
-0.0290462
0.032989
0.0750562
0.102971
0.120181
0.127456
0.126468
0.122283
-0.0257735
0.0215385
0.0871295
0.136555
0.168286
0.18823
0.199449
0.202742
0.202709
0.216149
0.115389
0.151975
0.203297
0.239342
0.259898
0.270408
0.273602
0.271768
0.272374
0.286772
0.254738
0.279779
0.316288
0.338877
0.348419
0.349912
0.345773
0.338276
0.333722
0.340452
0.38789
0.401159
0.422878
0.432184
0.430829
0.423477
0.412409
0.399659
0.390007
0.389366
0.510709
0.512625
0.520355
0.517274
0.505787
0.490117
0.472239
0.453856
0.438819
0.431739
0.619377
0.610886
0.605977
0.591829
0.571364
0.548406
0.524623
0.501319
0.481381
0.468252
0.710581
0.693137
0.677472
0.653961
0.625892
0.596739
0.567939
0.540477
0.516385
0.498124
0.781527
0.756997
0.732896
0.702091
0.668116
0.634162
0.601472
0.570753
0.543327
0.520948
0.830057
0.800621
0.770715
0.734904
0.696881
0.659642
0.624301
0.591354
0.561608
0.536361
0.854697
0.822754
0.789892
0.751539
0.711461
0.672555
0.635868
0.601784
0.570842
0.544127
0.854699
0.822756
0.789894
0.75154
0.711462
0.672556
0.635869
0.601785
0.570843
0.544128
0.830063
0.800626
0.77072
0.734908
0.696885
0.659646
0.624305
0.591358
0.561611
0.536364
0.781537
0.757006
0.732905
0.702098
0.668123
0.634169
0.601478
0.570759
0.543332
0.520953
0.710595
0.69315
0.677483
0.653971
0.625901
0.596748
0.567947
0.540485
0.516392
0.498131
0.619395
0.610903
0.605992
0.591843
0.571377
0.548418
0.524634
0.501329
0.481391
0.468261
0.510732
0.512646
0.520373
0.51729
0.505802
0.490131
0.472252
0.453868
0.438831
0.43175
0.387916
0.401183
0.4229
0.432203
0.430847
0.423493
0.412424
0.399673
0.39002
0.389378
0.254768
0.279807
0.316313
0.338899
0.34844
0.349931
0.345791
0.338293
0.333738
0.340467
0.115423
0.152006
0.203325
0.239367
0.259921
0.27043
0.273622
0.271787
0.272392
0.286789
-0.0257355
0.0215737
0.0871611
0.136584
0.168312
0.188254
0.199472
0.202763
0.20273
0.216168
-0.164244
-0.107616
-0.0290114
0.0330204
0.0750849
0.102998
0.120206
0.127479
0.126491
0.122305
-0.295788
-0.231769
-0.142031
-0.06853
-0.0167728
0.0188816
0.0427338
0.0566942
0.0618787
0.0611948
-0.41639
-0.347262
-0.248681
-0.164923
-0.103691
-0.0596827
-0.0278849
-0.00528909
0.00923086
0.016078
-0.522656
-0.450893
-0.346152
-0.253727
-0.183691
-0.131548
-0.0921365
-0.0619238
-0.0395879
-0.0258421
-0.612017
-0.540137
-0.432361
-0.333506
-0.256133
-0.197027
-0.151294
-0.115198
-0.0870361
-0.0676887
-0.68288
-0.613218
-0.505844
-0.403328
-0.320575
-0.256007
-0.205248
-0.164553
-0.131877
-0.108014
-0.734644
-0.669086
-0.565585
-0.462448
-0.376447
-0.307919
-0.253263
-0.208927
-0.172642
-0.14501
-0.767631
-0.707411
-0.611001
-0.510357
-0.423309
-0.352309
-0.294827
-0.247714
-0.208601
-0.177781
-0.782982
-0.728644
-0.642045
-0.546926
-0.461073
-0.389113
-0.329864
-0.2808
-0.239597
-0.206149
-0.782544
-0.734095
-0.659284
-0.572451
-0.490024
-0.41862
-0.358626
-0.30834
-0.265679
-0.230131
-0.768787
-0.725966
-0.66392
-0.587613
-0.510735
-0.441392
-0.381617
-0.330731
-0.287116
-0.249942
-0.744732
-0.70725
-0.65775
-0.593421
-0.523999
-0.458184
-0.399542
-0.34855
-0.304289
-0.265783
-0.713759
-0.681373
-0.643046
-0.591178
-0.530763
-0.469899
-0.413289
-0.362621
-0.317888
-0.27826
-0.679254
-0.651672
-0.622386
-0.582433
-0.53207
-0.477491
-0.423837
-0.373877
-0.328653
-0.28774
-0.644154
-0.62092
-0.598402
-0.568913
-0.528978
-0.481867
-0.432185
-0.383412
-0.33764
-0.295263
-0.610638
-0.591157
-0.573458
-0.552382
-0.522503
-0.483784
-0.439205
-0.392256
-0.345827
-0.301191
-0.580119
-0.563757
-0.549365
-0.5345
-0.513618
-0.483808
-0.445583
-0.401505
-0.354721
-0.307585
-0.553463
-0.539583
-0.527354
-0.516734
-0.503308
-0.482374
-0.451681
-0.411933
-0.365489
-0.315043
-0.531196
-0.519164
-0.5083
-0.500414
-0.492706
-0.479953
-0.457666
-0.424158
-0.380535
-0.329024
-0.513511
-0.50277
-0.492915
-0.486841
-0.483236
-0.477328
-0.463437
-0.437853
-0.399038
-0.34983
-0.500002
-0.490243
-0.481595
-0.477159
-0.476519
-0.475754
-0.469206
-0.452511
-0.424755
-0.389488
-0.489369
-0.480699
-0.473988
-0.47177
-0.473713
-0.476539
-0.475179
-0.464956
-0.444415
-0.410186
-0.479451
-0.472452
-0.46866
-0.469617
-0.474349
-0.479637
-0.4808
-0.472999
-0.454173
-0.418
-0.467728
-0.463327
-0.463243
-0.46805
-0.475799
-0.482897
-0.484839
-0.477113
-0.457269
-0.41941
-0.45208
-0.451226
-0.455041
-0.463535
-0.473909
-0.482114
-0.483784
-0.474892
-0.452574
-0.413706
-0.431607
-0.434877
-0.442036
-0.453124
-0.464881
-0.472979
-0.473285
-0.462195
-0.436915
-0.398366
-0.407325
-0.414691
-0.424129
-0.436243
-0.447726
-0.454251
-0.452088
-0.438231
-0.411034
-0.374816
-0.382423
-0.39329
-0.403907
-0.415733
-0.425691
-0.429673
-0.424549
-0.408397
-0.381478
-0.349095
-0.361646
-0.375028
-0.38608
-0.397074
-0.405233
-0.406747
-0.399164
-0.381905
-0.356892
-0.328196
-0.349767
-0.364459
-0.375613
-0.385989
-0.393007
-0.393065
-0.384179
-0.366695
-0.343361
-0.316784
-0.0371017
0.0265093
0.0199124
0.0103915
0.00406385
0.00202275
0.00113392
0.000599929
0.00028639
8.3954e-05
-0.0451308
0.0252501
0.019805
0.0103541
0.00404901
0.00201707
0.00113184
0.000599044
0.000285936
8.37725e-05
-0.0600051
0.022919
0.0195748
0.0102791
0.00401951
0.00200569
0.00112768
0.00059728
0.000285023
8.34124e-05
-0.0797735
0.0196125
0.0191968
0.0101669
0.00397574
0.00198854
0.00112144
0.000594645
0.000283657
8.28743e-05
-0.102092
0.0152694
0.0186546
0.0100198
0.0039183
0.00196551
0.0011131
0.000591142
0.000281833
8.21599e-05
-0.124321
0.00990361
0.017961
0.00984452
0.00384811
0.00193645
0.00110265
0.000586763
0.000279547
8.12744e-05
-0.144849
0.00358183
0.0171278
0.00964805
0.00376621
0.00190113
0.00108998
0.000581472
0.000276775
8.022e-05
-0.166138
-0.00424722
0.0160342
0.00942215
0.00367398
0.00185991
0.00107524
0.000575332
0.000273521
7.89977e-05
-0.191704
-0.0144834
0.0144925
0.00915753
0.00357545
0.00181444
0.0010593
0.000568793
0.000269965
7.76556e-05
-0.207142
-0.0241336
0.0130694
0.00891748
0.00346375
0.00176076
0.00104101
0.000561525
0.000266103
7.62489e-05
-0.195881
-0.0444346
0.0109242
0.00860861
0.00308109
0.00154409
0.000964497
0.00053087
0.000250618
7.10694e-05
-0.143637
-0.0466136
0.00363131
0.00544336
0.00160316
0.00078639
0.000626875
0.000385323
0.000187147
5.29869e-05
-0.0897583
-0.0405556
-0.00203988
0.00308072
0.000752347
0.000229781
0.000296172
0.000220496
0.000111495
3.08981e-05
-0.0577492
-0.034733
-0.00659948
0.000613163
-5.63304e-05
-0.000253437
-2.22343e-05
5.07495e-05
3.31117e-05
9.23983e-06
-0.037289
-0.0275187
-0.00875745
-0.00136833
-0.000759878
-0.000640126
-0.000299759
-0.000110373
-4.36757e-05
-1.19749e-05
-0.0233821
-0.0211577
-0.00949434
-0.00290014
-0.00140668
-0.000960963
-0.00053095
-0.000253724
-0.00011436
-3.15388e-05
-0.0148269
-0.0162689
-0.00942573
-0.00396383
-0.00195983
-0.00122243
-0.000713323
-0.000372569
-0.000175011
-4.8423e-05
-0.00948394
-0.0127161
-0.00900304
-0.0046307
-0.00239068
-0.00142522
-0.000848244
-0.000463311
-0.000222738
-6.18193e-05
-0.00635525
-0.0104372
-0.00856574
-0.00500451
-0.00268307
-0.00156495
-0.000937308
-0.000524259
-0.000255545
-7.10941e-05
-0.00492377
-0.00932956
-0.00830431
-0.00516929
-0.00283041
-0.00163639
-0.000981575
-0.000554815
-0.000272246
-7.5835e-05
-0.118837
-0.125727
-0.129194
-0.129155
-0.125039
-0.116758
-0.104191
-0.090617
-0.0818979
-0.095069
-0.0477938
-0.0513253
-0.0543796
-0.0580311
-0.0634088
-0.0720139
-0.0847263
-0.101418
-0.118797
-0.131058
-0.0256754
-0.0314939
-0.037631
-0.0440155
-0.0501279
-0.054993
-0.0575078
-0.057054
-0.0551083
-0.0557691
-0.00963269
-0.0125877
-0.0149511
-0.0166229
-0.0176171
-0.0181412
-0.0187934
-0.0202334
-0.0231434
-0.0273243
0.000103042
-0.00209194
-0.00420335
-0.0063475
-0.00866384
-0.0112145
-0.0140068
-0.016816
-0.0194773
-0.0217373
0.00374691
0.00179444
-0.000110757
-0.00195886
-0.00372642
-0.00535364
-0.00682378
-0.00811965
-0.00939513
-0.0107983
0.00616356
0.00471496
0.00333133
0.00201371
0.000753191
-0.000456479
-0.00164668
-0.00282651
-0.00404476
-0.00529227
0.00750291
0.00631856
0.00516307
0.00403475
0.00292944
0.00184986
0.000792221
-0.000232925
-0.00123956
-0.00222161
0.00813836
0.00711519
0.00611092
0.00512778
0.00416667
0.00323124
0.00232023
0.0014379
0.000575098
-0.000265845
0.00840172
0.00746654
0.00654621
0.0056426
0.00475637
0.0038896
0.00304147
0.00221497
0.00140624
0.000619881
0.0966464
0.0593649
0.0322326
0.0108747
-0.0112475
-0.0349834
-0.0579079
-0.0781052
-0.0949907
-0.108593
0.0766822
0.0597298
0.0395286
0.022186
0.00813197
-0.00465412
-0.0168265
-0.0276735
-0.036449
-0.0430473
0.0577861
0.0474437
0.0346189
0.0229154
0.0136447
0.00601737
-0.000990651
-0.007711
-0.0140432
-0.0199646
0.0434355
0.0363269
0.0283085
0.0211798
0.0154162
0.0105923
0.00615199
0.00183878
-0.00231575
-0.00617799
0.0341624
0.0298264
0.0249367
0.020497
0.0167807
0.0135822
0.0106258
0.00777664
0.00503949
0.00247167
0.0281193
0.0254038
0.0222725
0.0192948
0.0166692
0.0143207
0.0121094
0.00995125
0.00782924
0.0057578
0.0237883
0.0219497
0.0198495
0.0177939
0.0159024
0.0141529
0.0124819
0.0108477
0.00924182
0.0076758
0.0207774
0.0194626
0.0179989
0.0165362
0.0151382
0.0138022
0.0125033
0.0112238
0.00996018
0.00871787
0.018889
0.0178606
0.0167546
0.0156348
0.0145304
0.0134438
0.0123678
0.0112976
0.0102333
0.00917885
0.0179806
0.0170724
0.0161213
0.0151537
0.014183
0.0132128
0.0122428
0.011274
0.0103085
0.00935
0.240512
0.240632
0.240922
0.240797
0.239562
0.236109
0.228986
0.214906
0.189564
0.145381
0.179048
0.177829
0.175057
0.170711
0.164245
0.155435
0.143448
0.128458
0.110342
0.091073
0.128432
0.127036
0.124053
0.119672
0.113885
0.106965
0.0988322
0.089779
0.0794708
0.067726
0.0922616
0.0913094
0.0893581
0.0865162
0.0827897
0.0783404
0.0730516
0.0669455
0.059648
0.0510402
0.0679227
0.0673378
0.0661284
0.0642836
0.0617397
0.0585478
0.0546495
0.0501104
0.0448566
0.0390159
0.0514595
0.0510478
0.0501865
0.0488509
0.0469993
0.0446733
0.0418771
0.0386882
0.0351117
0.031248
0.0403391
0.0400327
0.0393992
0.038427
0.0370994
0.0354453
0.0334738
0.0312281
0.0287163
0.0259973
0.0330999
0.0328708
0.0324011
0.0316814
0.0307016
0.0294766
0.0280142
0.0263393
0.0244661
0.0224336
0.0287668
0.0285843
0.0282109
0.0276372
0.0268566
0.025878
0.0247104
0.02337
0.0218715
0.0202364
0.026738
0.0265763
0.0262461
0.0257389
0.0250502
0.0241863
0.0231564
0.0219721
0.0206468
0.0191931
0.340612
0.343783
0.350371
0.36036
0.374026
0.391481
0.413429
0.439993
0.472332
0.510147
0.338757
0.341905
0.34841
0.358208
0.371597
0.38867
0.410139
0.436058
0.467597
0.504216
0.335127
0.338228
0.344571
0.353995
0.366844
0.383169
0.403692
0.428333
0.45828
0.492489
0.329871
0.3329
0.339007
0.347895
0.359962
0.375193
0.394325
0.41706
0.444604
0.475133
0.323192
0.326125
0.331933
0.340142
0.351214
0.365035
0.382358
0.402562
0.426868
0.452368
0.31533
0.318147
0.323605
0.331024
0.340921
0.353047
0.368163
0.385236
0.405444
0.424508
0.306534
0.309221
0.314306
0.320864
0.329457
0.339651
0.352179
0.365515
0.380768
0.391865
0.297042
0.299584
0.304305
0.309993
0.31724
0.325364
0.335001
0.34397
0.353283
0.354977
0.287077
0.289416
0.293773
0.298623
0.304576
0.31062
0.317325
0.321583
0.323531
0.314531
0.27687
0.278861
0.282671
0.286623
0.291255
0.295245
0.299192
0.299179
0.294287
0.270308
0.276877
0.278868
0.282679
0.286631
0.291264
0.295254
0.299202
0.29919
0.2943
0.270323
0.287084
0.289423
0.29378
0.298631
0.304583
0.310628
0.317334
0.321593
0.323543
0.314545
0.297048
0.29959
0.304311
0.31
0.317247
0.325372
0.33501
0.343979
0.353294
0.35499
0.306539
0.309226
0.314311
0.320869
0.329463
0.339658
0.352186
0.365523
0.380777
0.391876
0.315335
0.318151
0.32361
0.331029
0.340926
0.353053
0.36817
0.385243
0.405452
0.424517
0.323196
0.326129
0.331937
0.340146
0.351218
0.36504
0.382363
0.402568
0.426874
0.452376
0.329874
0.332902
0.33901
0.347898
0.359965
0.375197
0.394329
0.417064
0.44461
0.475139
0.335129
0.33823
0.344573
0.353998
0.366847
0.383172
0.403695
0.428337
0.458284
0.492493
0.338759
0.341906
0.348411
0.358209
0.371598
0.388672
0.410141
0.43606
0.4676
0.504218
0.340612
0.343783
0.350372
0.36036
0.374027
0.391482
0.41343
0.439994
0.472333
0.510148
0.0267514
0.0265898
0.0262595
0.0257523
0.0250636
0.0241996
0.0231695
0.0219852
0.0206599
0.0192062
0.0287803
0.0285977
0.0282242
0.0276505
0.0268699
0.0258914
0.0247242
0.0233842
0.0218858
0.0202506
0.0331134
0.0328843
0.0324147
0.031695
0.0307152
0.0294901
0.0280275
0.0263525
0.0244792
0.0224467
0.0403526
0.0400462
0.0394127
0.0384406
0.037113
0.0354589
0.0334875
0.0312417
0.0287298
0.0260108
0.0514731
0.0510615
0.0502002
0.0488646
0.0470129
0.0446869
0.0418908
0.0387019
0.0351254
0.0312619
0.0679361
0.0673514
0.0661421
0.0642973
0.0617535
0.0585617
0.0546634
0.0501242
0.0448703
0.0390299
0.0922749
0.0913228
0.0893715
0.0865296
0.0828032
0.078354
0.0730654
0.0669595
0.059662
0.0510543
0.128445
0.127049
0.124066
0.119685
0.113898
0.106979
0.0988458
0.089793
0.0794853
0.0677409
0.179059
0.177841
0.175069
0.170723
0.164257
0.155449
0.143461
0.128472
0.110358
0.0910898
0.240522
0.240641
0.240932
0.240807
0.239572
0.23612
0.228998
0.214919
0.18958
0.1454
0.0179939
0.0170859
0.0161349
0.0151674
0.0141966
0.0132263
0.0122563
0.0112874
0.0103219
0.00936334
0.0189026
0.0178738
0.0167675
0.0156475
0.0145431
0.0134565
0.0123805
0.0113102
0.0102458
0.00919129
0.0207908
0.0194762
0.0180127
0.0165499
0.0151519
0.0138158
0.0125168
0.0112372
0.00997352
0.00873112
0.023802
0.0219634
0.0198631
0.0178074
0.0159157
0.014166
0.0124949
0.0108606
0.00925467
0.00768861
0.0281335
0.0254179
0.0222864
0.0193085
0.0166826
0.0143339
0.0121225
0.00996423
0.00784211
0.00577058
0.0341766
0.0298405
0.0249508
0.0205109
0.0167944
0.0135958
0.0106392
0.00778995
0.00505271
0.00248475
0.04345
0.0363417
0.0283234
0.0211943
0.0154303
0.0106061
0.00616569
0.00185242
-0.0023021
-0.00616422
0.0578017
0.0474596
0.0346348
0.022931
0.0136599
0.0060322
-0.000975967
-0.00769633
-0.0140286
-0.0199499
0.0766996
0.0597474
0.0395459
0.0222028
0.00814841
-0.00463792
-0.0168104
-0.0276576
-0.0364336
-0.0430327
0.0966677
0.0593877
0.0322552
0.0108968
-0.0112254
-0.0349612
-0.0578856
-0.078083
-0.0949689
-0.108571
0.00841503
0.00747978
0.00655933
0.00565559
0.00476923
0.00390231
0.00305403
0.00222737
0.00141847
0.000631888
0.00815072
0.00712746
0.00612308
0.00513982
0.00417856
0.003243
0.00233187
0.00144945
0.000586555
-0.00025449
0.00751611
0.00633172
0.00517613
0.00404763
0.0029421
0.00186228
0.000804421
-0.000220928
-0.00122773
-0.00220994
0.00617634
0.00472766
0.00334392
0.0020262
0.000765559
-0.000444259
-0.00163461
-0.0028146
-0.00403301
-0.00528072
0.0037596
0.00180706
-9.81728e-05
-0.00194632
-0.00371397
-0.00534135
-0.00681169
-0.00810779
-0.00938352
-0.010787
0.000116026
-0.00207899
-0.00419052
-0.00633493
-0.00865151
-0.0112023
-0.0139948
-0.016804
-0.0194654
-0.0217255
-0.00961894
-0.0125743
-0.0149382
-0.0166102
-0.0176048
-0.0181293
-0.018782
-0.0202223
-0.0231326
-0.0273134
-0.0256608
-0.0314796
-0.0376167
-0.0440009
-0.0501129
-0.054978
-0.0574931
-0.05704
-0.0550952
-0.0557567
-0.0477798
-0.0513116
-0.0543663
-0.0580185
-0.0633966
-0.0720014
-0.084713
-0.101403
-0.11878
-0.131041
-0.118817
-0.125708
-0.129176
-0.129138
-0.125025
-0.116746
-0.104183
-0.0906124
-0.0818965
-0.0950688
-0.00491367
-0.00932117
-0.00829811
-0.00516449
-0.00282663
-0.00163339
-0.000979369
-0.000553384
-0.000271452
-7.55859e-05
-0.00634512
-0.0104291
-0.00855964
-0.00499969
-0.0026793
-0.001562
-0.000935172
-0.000522889
-0.000254808
-7.08448e-05
-0.00947373
-0.0127082
-0.00899705
-0.00462588
-0.00238697
-0.0014224
-0.000846249
-0.000462018
-0.000222016
-6.15704e-05
-0.014817
-0.0162612
-0.00941977
-0.00395904
-0.00195624
-0.00121978
-0.000711467
-0.000371388
-0.000174344
-4.8165e-05
-0.0233722
-0.0211504
-0.00948847
-0.00289541
-0.00140323
-0.000958526
-0.00052925
-0.000252668
-0.000113761
-3.12781e-05
-0.0372786
-0.0275117
-0.00875192
-0.00136383
-0.000756699
-0.000637932
-0.000298223
-0.000109433
-4.3146e-05
-1.17352e-05
-0.0577386
-0.0347264
-0.00659441
0.000617257
-5.35044e-05
-0.000251485
-2.08414e-05
5.15527e-05
3.35647e-05
9.45292e-06
-0.0897478
-0.0405496
-0.00203534
0.00308431
0.000754808
0.000231486
0.000297411
0.000221098
0.000111838
3.10985e-05
-0.143626
-0.0466084
0.00363512
0.00544637
0.00160516
0.000787754
0.000627951
0.000385736
0.00018735
5.31596e-05
-0.195872
-0.0444311
0.0109269
0.00861099
0.00308257
0.00154502
0.000965305
0.000531194
0.000250784
7.11905e-05
-0.207135
-0.0241312
0.0130715
0.00891938
0.00346475
0.00176148
0.00104168
0.000561867
0.000266264
7.63493e-05
-0.191699
-0.0144813
0.0144945
0.00915926
0.00357628
0.0018151
0.00105992
0.000569112
0.000270111
7.77454e-05
-0.166136
-0.00424515
0.0160361
0.00942369
0.00367464
0.00186049
0.00107578
0.000575613
0.00027365
7.90756e-05
-0.144847
0.00358389
0.0171295
0.00964942
0.00376674
0.00190164
0.00109044
0.000581719
0.00027689
8.02868e-05
-0.124319
0.00990569
0.0179625
0.00984571
0.00384849
0.00193688
0.00110302
0.000586977
0.000279651
8.13314e-05
-0.102089
0.0152715
0.0186559
0.0100208
0.00391855
0.00196587
0.00111338
0.000591324
0.000281927
8.22079e-05
-0.0797703
0.0196146
0.0191978
0.0101677
0.00397586
0.00198883
0.00112164
0.000594795
0.000283737
8.29143e-05
-0.0600019
0.0229208
0.0195755
0.0102798
0.00401951
0.00200591
0.0011278
0.000597391
0.000285084
8.34436e-05
-0.0451283
0.0252514
0.0198054
0.0103545
0.00404896
0.0020172
0.0011319
0.000599108
0.000285969
8.37913e-05
-0.0371008
0.0265098
0.0199125
0.0103917
0.00406381
0.00202279
0.00113394
0.000599949
0.000286401
8.39568e-05
)
;

boundaryField
{
    inlet
    {
        type            zeroGradient;
    }
    outlet
    {
        type            fixedValue;
        value           uniform 0;
    }
    cylinder
    {
        type            zeroGradient;
    }
    top
    {
        type            symmetryPlane;
    }
    bottom
    {
        type            symmetryPlane;
    }
    defaultFaces
    {
        type            empty;
    }
}


// ************************************************************************* //
