/*--------------------------------*- C++ -*----------------------------------*\
  =========                 |
  \\      /  F ield         | OpenFOAM: The Open Source CFD Toolbox
   \\    /   O peration     | Website:  https://openfoam.org
    \\  /    A nd           | Version:  6.0
     \\/     M anipulation  |
\*---------------------------------------------------------------------------*/
FoamFile
{
    version     2.0;
    format      ascii;
    class       surfaceScalarField;
    location    "2";
    object      phi;
}
// * * * * * * * * * * * * * * * * * * * * * * * * * * * * * * * * * * * * * //

dimensions      [0 3 -1 0 0 0 0];

internalField   nonuniform List<scalar> 
3880
(
-0.000237178
0.000237314
-1.36766e-07
-0.00063951
0.000402547
-2.14928e-07
-0.00107582
0.000436519
-2.10455e-07
-0.00148015
0.000404503
-1.70157e-07
-0.00181015
0.000330108
-1.11711e-07
-0.00203261
0.000222502
-4.2793e-08
-0.00212187
8.92295e-05
3.05163e-08
-0.00206491
-5.70541e-05
1.00583e-07
-0.00187262
-0.000192451
1.5541e-07
-0.000276922
1.8043e-07
-0.00159588
-0.000199757
0.000437071
-0.000549799
0.00075259
-0.000933661
0.000820381
-0.00128898
0.000759825
-0.00157597
0.000617091
-0.00176447
0.000411009
-0.00183082
0.000155575
-0.00176009
-0.000127782
-0.00155312
-0.000399417
-0.000583757
-0.00124629
-0.000134383
0.000571454
-0.000389373
0.00100758
-0.000675105
0.00110611
-0.000935956
0.00102068
-0.00113614
0.000817274
-0.00125045
0.000525318
-0.00125924
0.000164363
-0.00114686
-0.000240157
-0.000901507
-0.000644772
-0.000955889
-0.000529375
-5.77656e-05
0.00062922
-0.000193661
0.00114348
-0.000351252
0.0012637
-0.000484603
0.00115403
-0.000562334
0.000895006
-0.0005639
0.000526883
-0.000474515
7.4979e-05
-0.000281265
-0.000433407
3.23299e-05
-0.000958367
-0.00142064
0.000497084
1.11754e-05
0.000618044
-6.02685e-06
0.00116068
-2.86675e-05
0.00128634
-2.31882e-05
0.00114855
3.69911e-05
0.000834827
0.000169709
0.000394166
0.000386655
-0.000141967
0.000696085
-0.000742837
0.00110524
-0.00136752
-0.00198487
0.00166947
5.78852e-05
0.000560159
0.000136144
0.00108242
0.000231688
0.0011908
0.000364982
0.00101525
0.000557598
0.000642211
0.000826584
0.000125179
0.00118273
-0.000498109
0.00162926
-0.00118937
0.0021541
-0.00189237
-0.00263888
0.00280811
7.69411e-05
0.000483218
0.000214408
0.000944953
0.000396632
0.00100858
0.000634354
0.000777531
0.000945607
0.000330959
0.00134707
-0.000276289
0.00184633
-0.000997364
0.00243656
-0.0017796
0.00308424
-0.00254004
-0.00336052
0.00380587
7.28091e-05
0.000410409
0.000234914
0.000782847
0.0004731
0.000770391
0.000795401
0.000455229
0.00121837
-9.20102e-05
0.00175418
-0.000812095
0.0023973
-0.00164048
0.00312009
-0.00250239
0.00387033
-0.00329028
-0.00410651
0.00461632
5.68599e-05
0.000353549
0.000224209
0.000615498
0.000503806
0.000490794
0.000907571
5.14646e-05
0.00144785
-0.000632294
0.0021193
-0.00148354
0.00288764
-0.00240882
0.00369796
-0.00331271
0.00449109
-0.00408341
-0.00480992
0.00519449
4.22773e-05
0.000311272
0.000216566
0.000441209
0.000545408
0.000161951
0.00104503
-0.000448159
0.00171206
-0.00129932
0.00250536
-0.00227685
0.00334981
-0.00325328
0.00416257
-0.00412546
0.00489031
-0.00481115
-0.00541716
0.00549755
3.87641e-05
0.000272508
0.000238417
0.000241557
0.000639566
-0.000239198
0.0012532
-0.0010618
0.00204251
-0.00208863
0.00292131
-0.00315564
0.00378439
-0.00411636
0.00453965
-0.00488072
0.00512456
-0.00539606
-0.0057643
0.00547169
4.96865e-05
0.000222821
0.000299359
-8.11541e-06
0.000796715
-0.000736554
0.00152835
-0.00179343
0.00240821
-0.00296848
0.003312
-0.00405944
0.00413073
-0.00493509
0.00479895
-0.00554893
0.00531252
-0.00590963
-0.00610941
0.00565763
7.32679e-05
0.000149553
0.000394687
-0.000329534
0.00100092
-0.00134278
0.00183064
-0.00262316
0.00274591
-0.00388375
0.00360768
-0.00492121
0.00432831
-0.00565571
0.00487906
-0.00609969
0.00527666
-0.00630723
-0.00636987
0.00553712
0.000106021
4.35322e-05
0.000513429
-0.000736942
0.00122314
-0.00205249
0.00210811
-0.00350812
0.00299541
-0.00477105
0.00376097
-0.00568678
0.00435574
-0.00625048
0.00478719
-0.00653114
0.00509452
-0.00661455
-0.00658627
0.00531092
0.00014514
-0.000101608
0.000643232
-0.00123503
0.00143087
-0.00284013
0.00231529
-0.00439254
0.0031199
-0.00557566
0.00375829
-0.00632516
0.00422203
-0.00671422
0.00454435
-0.00685347
0.00477126
-0.00684146
-0.0067508
0.00493579
0.000188732
-0.00029034
0.000770549
-0.00181685
0.00159404
-0.00366362
0.0024236
-0.0052221
0.00311017
-0.00626224
0.00361344
-0.00682843
0.00395804
-0.00705883
0.00419129
-0.00708671
0.00435836
-0.00700854
-0.00688352
0.00449109
0.000234826
-0.000525166
0.000880316
-0.00246234
0.00169073
-0.00447403
0.00242432
-0.00595569
0.00297836
-0.00681628
0.00335451
-0.00720457
0.00359836
-0.00730267
0.00376026
-0.00724861
0.00387886
-0.00712714
-0.00698299
0.00397833
0.000280294
-0.00080546
0.000958164
-0.00314021
0.00171101
-0.00522688
0.00232505
-0.00656973
0.00274786
-0.00723909
0.00301252
-0.00746924
0.00317422
-0.00746438
0.00327965
-0.00735404
0.00335922
-0.00720671
-0.007055
0.00343123
0.000320486
-0.00112595
0.000993935
-0.00381366
0.00165657
-0.00588951
0.00214278
-0.00705595
0.00244458
-0.00754089
0.00261471
-0.00763936
0.00270909
-0.00755876
0.00276673
-0.00741168
0.0028096
-0.00724959
-0.00709533
0.00284993
0.000350005
-0.00147595
0.000983836
-0.00444749
0.00153689
-0.00644257
0.0018975
-0.00741655
0.00209198
-0.00773538
0.00218248
-0.00772986
0.00222007
-0.00759635
0.00223503
-0.00742663
0.00224248
-0.00725704
-0.0071036
0.00225074
0.000364231
-0.00184018
0.000930139
-0.0050134
0.00136518
-0.00687761
0.00160819
-0.00765955
0.00170904
-0.00783623
0.00173148
-0.0077523
0.00171872
-0.00758359
0.00169269
-0.0074006
0.00166312
-0.00722748
-0.00707567
0.00163519
0.000360491
-0.00220067
0.00083889
-0.0054918
0.00115509
-0.00719382
0.00129085
-0.00779531
0.00131005
-0.00785543
0.00127278
-0.00771502
0.00121349
-0.0075243
0.00114719
-0.00733431
0.00107991
-0.00716019
-0.00701058
0.00101482
0.0003386
-0.00253927
0.000717972
-0.00587117
0.000919226
-0.00739507
0.00095831
-0.00783439
0.000905497
-0.00780262
0.000814128
-0.00762365
0.000710301
-0.00742047
0.00060363
-0.00722764
0.000497574
-0.00705414
-0.0069069
0.0003939
0.000300416
-0.00283969
0.000575482
-0.00614623
0.000668236
-0.00748783
0.000620345
-0.0077865
0.000502869
-0.00768514
0.000361087
-0.00748187
0.000213934
-0.00727332
6.71923e-05
-0.0070809
-7.73165e-05
-0.00690963
-0.00676575
-0.000218468
0.000249049
-0.00308874
0.000418874
-0.00631606
0.000410667
-0.00747962
0.000284218
-0.00766006
0.000107494
-0.00750842
-8.24254e-05
-0.00729195
-0.000272257
-0.00708349
-0.000458703
-0.00689445
-0.000640932
-0.0067274
-0.00658852
-0.000818162
0.000188038
-0.00327678
0.000254505
-0.00638253
0.000153024
-0.00737814
-4.49077e-05
-0.00746212
-0.000276893
-0.00727643
-0.000513511
-0.00705533
-0.000745648
-0.00685135
-0.000971322
-0.00666878
-0.00119
-0.00650873
-0.0063762
-0.00140232
0.000120852
-0.00339763
8.76274e-05
-0.0063493
-9.99199e-05
-0.00719059
-0.000363714
-0.00719833
-0.00064826
-0.00699189
-0.000930879
-0.00677271
-0.00120549
-0.00657674
-0.00147086
-0.0064034
-0.00172633
-0.00625325
-0.00612475
-0.00197778
5.07786e-05
-0.00344841
-7.7144e-05
-0.00622138
-0.000344194
-0.00692354
-0.000669796
-0.00687273
-0.00100592
-0.00665576
-0.00133538
-0.00644325
-0.00165386
-0.00625826
-0.00196059
-0.00609668
-0.00225591
-0.00595793
-0.00582432
-0.00255634
-1.9104e-05
-0.0034293
-0.00023533
-0.00600515
-0.000575254
-0.00658362
-0.000959185
-0.0064888
-0.00134724
-0.00626771
-0.00172716
-0.00606333
-0.00209524
-0.00589019
-0.00244916
-0.00574276
-0.00278861
-0.00561848
-0.005473
-0.00313992
-8.62572e-05
-0.00334305
-0.000383022
-0.00570839
-0.000787987
-0.00617865
-0.00122451
-0.00605228
-0.00166156
-0.00583066
-0.00209318
-0.00563171
-0.00251891
-0.00546445
-0.00293941
-0.00532227
-0.00335766
-0.00520023
-0.0051795
-0.00365116
-0.000149054
-0.00319399
-0.000518111
-0.00533933
-0.000979706
-0.00571706
-0.00146015
-0.00557183
-0.0019352
-0.00535561
-0.00240441
-0.0051625
-0.00287276
-0.0049961
-0.0033415
-0.00485353
-0.00381522
-0.00472651
-0.00456284
-0.00443188
-0.000206698
-0.00298729
-0.000640339
-0.00490569
-0.00115204
-0.00520535
-0.0016708
-0.00505308
-0.00217507
-0.00485133
-0.00266135
-0.00467622
-0.00313008
-0.00452737
-0.00358759
-0.00439602
-0.00404613
-0.00426797
-0.00413054
-0.00447843
-0.000258426
-0.00272887
-0.000748926
-0.00441519
-0.00130508
-0.00464919
-0.00186046
-0.0044977
-0.00239933
-0.00431247
-0.0029213
-0.00415424
-0.00342826
-0.00402042
-0.00392178
-0.00390249
-0.00439698
-0.00379277
-0.00369544
-0.00483207
-0.000303938
-0.00242493
-0.000843381
-0.00387575
-0.00143647
-0.0040561
-0.00201983
-0.00391434
-0.00258143
-0.00375087
-0.00312282
-0.00361285
-0.00364679
-0.00349645
-0.00415466
-0.00339462
-0.00464481
-0.00330262
-0.00322365
-0.0051166
-0.00034341
-0.00208152
-0.000925279
-0.00329388
-0.00155158
-0.0034298
-0.00216252
-0.0033034
-0.00274935
-0.00316404
-0.00331459
-0.00304761
-0.00386093
-0.00295011
-0.00438945
-0.00286611
-0.00490007
-0.002792
-0.00273092
-0.0053928
-0.000376281
-0.00170524
-0.000992907
-0.00267725
-0.00164594
-0.00277677
-0.00227878
-0.00267055
-0.00288552
-0.0025573
-0.00346958
-0.00246355
-0.00403417
-0.00238552
-0.0045815
-0.00231878
-0.00511283
-0.00226067
-0.00221417
-0.00562958
-0.000402887
-0.00130235
-0.0010476
-0.00203254
-0.00172254
-0.00210184
-0.00237378
-0.00201931
-0.00299766
-0.00193342
-0.00359837
-0.00186284
-0.00417941
-0.00180448
-0.00474326
-0.00175493
-0.00529171
-0.00171222
-0.00167896
-0.00582692
-0.000422922
-0.000879429
-0.00108869
-0.00136676
-0.00178008
-0.00141046
-0.00244526
-0.00135414
-0.00308219
-0.00129648
-0.00369568
-0.00124935
-0.00428963
-0.00121053
-0.00486683
-0.00117773
-0.00542932
-0.00114973
-0.00112845
-0.00597984
-0.000436334
-0.000443095
-0.00111617
-0.000686929
-0.0018186
-0.000708025
-0.00249325
-0.000679482
-0.00313919
-0.000650547
-0.00376157
-0.000626967
-0.0043645
-0.000607598
-0.00495096
-0.000591283
-0.00552324
-0.000577437
-0.000567118
-0.00608457
-0.000443062
-3.32009e-08
-0.00112994
-5.00054e-08
-0.00183792
-5.08845e-08
-0.00251735
-4.81552e-08
-0.00316785
-4.47556e-08
-0.00379478
-4.12756e-08
-0.00440234
-3.80778e-08
-0.00499358
-3.53398e-08
-0.00557099
-3.30833e-08
-3.13576e-08
-0.00613808
-0.000443062
0.000443029
-0.00112994
0.000686829
-0.00183792
0.000707924
-0.00251735
0.000679385
-0.00316785
0.000650457
-0.00379478
0.000626884
-0.00440234
0.000607522
-0.00499358
0.000591212
-0.00557099
0.000577371
0.000567056
-0.00613808
-0.000436333
0.000879362
-0.00111617
0.00136666
-0.0018186
0.00141035
-0.00249325
0.00135404
-0.00313919
0.00129639
-0.00376157
0.00124927
-0.0043645
0.00121045
-0.00495095
0.00117766
-0.00552324
0.00114966
0.00112839
-0.00608457
-0.000422922
0.00130228
-0.00108869
0.00203243
-0.00178008
0.00210174
-0.00244526
0.00201922
-0.00308219
0.00193333
-0.00369568
0.00186276
-0.00428963
0.0018044
-0.00486683
0.00175486
-0.00542932
0.00171216
0.0016789
-0.00597984
-0.000402887
0.00170517
-0.0010476
0.00267715
-0.00172253
0.00277667
-0.00237377
0.00267046
-0.00299766
0.00255721
-0.00359837
0.00246347
-0.00417941
0.00238545
-0.00474326
0.00231871
-0.00529171
0.0022606
0.00221411
-0.00582692
-0.000376281
0.00208145
-0.000992906
0.00329378
-0.00164593
0.0034297
-0.00227878
0.0033033
-0.00288551
0.00316395
-0.00346958
0.00304753
-0.00403417
0.00295004
-0.00458149
0.00286604
-0.00511283
0.00279194
0.00273086
-0.00562958
-0.000343409
0.00242486
-0.000925278
0.00387564
-0.00155158
0.004056
-0.00216252
0.00391424
-0.00274935
0.00375078
-0.00331459
0.00361276
-0.00386093
0.00349637
-0.00438944
0.00339455
-0.00490006
0.00330256
0.00322359
-0.00539279
-0.000303938
0.0027288
-0.000843379
0.00441509
-0.00143647
0.00464909
-0.00201983
0.0044976
-0.00258142
0.00431237
-0.00312281
0.00415415
-0.00364678
0.00402034
-0.00415465
0.00390242
-0.0046448
0.00379271
0.00369539
-0.00511659
-0.000258425
0.00298722
-0.000748923
0.00490558
-0.00130508
0.00520525
-0.00186045
0.00505297
-0.00239932
0.00485124
-0.0029213
0.00467613
-0.00342824
0.00452729
-0.00392177
0.00439594
-0.00439696
0.0042679
0.00413048
-0.00483206
-0.000206697
0.00319392
-0.000640336
0.00533922
-0.00115204
0.00571695
-0.00167079
0.00557173
-0.00217506
0.00535551
-0.00266134
0.00516241
-0.00313007
0.00499602
-0.00358758
0.00485346
-0.00404612
0.00472644
0.00456278
-0.00447842
-0.000149053
0.00334297
-0.000518108
0.00570828
-0.000979701
0.00617854
-0.00146015
0.00605217
-0.00193519
0.00583056
-0.0024044
0.00563162
-0.00287275
0.00546437
-0.00334148
0.00532219
-0.0038152
0.00520016
0.00517943
-0.00443185
-8.62562e-05
0.00342923
-0.000383019
0.00600504
-0.000787982
0.0065835
-0.0012245
0.00648869
-0.00166155
0.00626761
-0.00209317
0.00606324
-0.0025189
0.0058901
-0.00293939
0.00574268
-0.00335764
0.00561841
0.00547294
-0.00365114
-1.91031e-05
0.00344833
-0.000235327
0.00622126
-0.000575248
0.00692343
-0.000959177
0.00687262
-0.00134723
0.00665566
-0.00172715
0.00644316
-0.00209523
0.00625818
-0.00244914
0.0060966
-0.00278859
0.00595786
0.00582425
-0.00313991
5.07795e-05
0.00339755
-7.714e-05
0.00634918
-0.000344187
0.00719047
-0.000669787
0.00719822
-0.00100591
0.00699178
-0.00133537
0.00677262
-0.00165385
0.00657665
-0.00196058
0.00640332
-0.0022559
0.00625318
0.00612468
-0.00255633
0.000120853
0.0032767
8.76319e-05
0.0063824
-9.99119e-05
0.00737802
-0.000363704
0.00746201
-0.000648249
0.00727633
-0.000930868
0.00705524
-0.00120547
0.00685126
-0.00147085
0.00666869
-0.00172632
0.00650865
0.00637613
-0.00197776
0.000188039
0.00308866
0.00025451
0.00631593
0.000153033
0.00747949
-4.48953e-05
0.00765994
-0.000276879
0.00750831
-0.000513497
0.00729185
-0.000745635
0.0070834
-0.000971308
0.00689437
-0.00118998
0.00672732
0.00658845
-0.00140231
0.00024905
0.00283961
0.00041888
0.0061461
0.000410679
0.00748769
0.000284234
0.00778638
0.000107512
0.00768504
-8.24072e-05
0.00748177
-0.000272239
0.00727323
-0.000458685
0.00708081
-0.000640915
0.00690955
0.00676568
-0.000818144
0.000300416
0.0025392
0.000575488
0.00587103
0.00066825
0.00739493
0.000620365
0.00783427
0.000502892
0.00780251
0.000361111
0.00762355
0.000213959
0.00742038
6.72167e-05
0.00722756
-7.72926e-05
0.00705406
0.00690683
-0.000218444
0.000338599
0.0022006
0.000717978
0.00549165
0.000919242
0.00719367
0.000958334
0.00779518
0.000905527
0.00785532
0.00081416
0.00771492
0.000710334
0.00752421
0.000603663
0.00733423
0.000497607
0.00716012
0.00701051
0.000393932
0.000360489
0.00184011
0.000838895
0.00501325
0.00115511
0.00687745
0.00129088
0.00765941
0.00131009
0.00783611
0.00127282
0.00775219
0.00121353
0.00758349
0.00114724
0.00740052
0.00107995
0.0072274
0.0070756
0.00101486
0.000364226
0.00147588
0.000930141
0.00444733
0.0013652
0.00644239
0.00160822
0.00741639
0.00170908
0.00773524
0.00173153
0.00772974
0.00171877
0.00759625
0.00169274
0.00742655
0.00166318
0.00725697
0.00710353
0.00163525
0.000349998
0.00112588
0.000983832
0.0038135
0.00153691
0.00588932
0.00189753
0.00705577
0.00209203
0.00754074
0.00218254
0.00763923
0.00222013
0.00755866
0.0022351
0.00741159
0.00224255
0.00724951
0.00709526
0.00225082
0.000320477
0.000805408
0.000993924
0.00314005
0.00165657
0.00522667
0.00214281
0.00656953
0.00244463
0.00723892
0.00261477
0.00746909
0.00270917
0.00746426
0.00276681
0.00735395
0.00280969
0.00720663
0.00705493
0.00285002
0.000280283
0.000525124
0.000958144
0.00246219
0.001711
0.00447382
0.00232506
0.00595547
0.0027479
0.00681608
0.00301258
0.00720441
0.0031743
0.00730254
0.00327975
0.0072485
0.00335932
0.00712705
0.00698291
0.00343134
0.000234815
0.00029031
0.000880289
0.00181672
0.0016907
0.0036634
0.00242432
0.00522185
0.00297839
0.00626201
0.00335457
0.00682824
0.00359844
0.00705867
0.00376036
0.00708658
0.00387898
0.00700843
0.00688344
0.00397846
0.000188721
0.000101588
0.000770516
0.00123492
0.001594
0.00283992
0.00242357
0.00439228
0.00311018
0.0055754
0.00361349
0.00632493
0.00395812
0.00671403
0.00419139
0.00685331
0.00435849
0.00684134
0.0067507
0.00449123
0.00014513
-4.35416e-05
0.000643198
0.000736853
0.00143081
0.0020523
0.00231524
0.00350786
0.00311988
0.00477076
0.00375831
0.0056865
0.0042221
0.00625024
0.00454446
0.00653095
0.00477139
0.0066144
0.00658615
0.00493594
0.000106012
-0.000149554
0.000513395
0.00032947
0.00122308
0.00134262
0.00210803
0.0026229
0.00299535
0.00388344
0.00376096
0.0049209
0.00435578
0.00565542
0.00478728
0.00609944
0.00509466
0.00630703
0.00636971
0.00531109
7.32613e-05
-0.000222815
0.000394658
8.07351e-06
0.00100085
0.000736426
0.00183055
0.0017932
0.00274582
0.00296817
0.00360762
0.00405909
0.0043283
0.00493474
0.00487912
0.00554862
0.00527678
0.00590937
0.0061092
0.00553729
4.96823e-05
-0.000272498
0.000299334
-0.000241579
0.000796655
0.000239106
0.00152825
0.00106161
0.00240808
0.00208834
0.00331189
0.00315529
0.00413066
0.00411598
0.00479894
0.00488034
0.00531258
0.00539572
0.00576402
0.00565777
3.87621e-05
-0.00031126
0.000238398
-0.000441215
0.000639514
-0.00016201
0.0012531
0.000448016
0.00204237
0.00129907
0.00292115
0.00227651
0.00378425
0.00325288
0.00453956
0.00412503
0.00512455
0.00481074
0.00541678
0.00547178
4.22757e-05
-0.000353535
0.000216548
-0.000615486
0.000545358
-0.000490821
0.00104494
-5.15621e-05
0.00171191
0.000632102
0.00250517
0.00148325
0.00334961
0.00240844
0.00416239
0.00331226
0.00489018
0.00408294
0.00480946
0.0054975
5.68552e-05
-0.000410391
0.000224183
-0.000782815
0.000503746
-0.000770384
0.000907467
-0.000455283
0.0014477
9.18703e-05
0.00211909
0.000811852
0.00288739
0.00164014
0.0036977
0.00250195
0.00449085
0.0032898
0.004106
0.00519431
7.27968e-05
-0.000483188
0.00023487
-0.000944888
0.000473014
-0.00100853
0.000795268
-0.000777537
0.00121819
-0.000331048
0.00175394
0.000276099
0.00239701
0.000997065
0.00311977
0.0017792
0.00387
0.00253956
0.00335997
0.00461602
7.69173e-05
-0.000560105
0.000214336
-0.00108231
0.000396507
-0.0011907
0.000634175
-0.00101521
0.000945375
-0.000642249
0.00134679
-0.000125317
0.001846
0.000497861
0.00243618
0.00118901
0.00308383
0.00189192
0.00263833
0.00380547
5.78487e-05
-0.000617953
0.000136045
-0.0011605
0.000231521
-0.00128617
0.000364753
-0.00114844
0.000557311
-0.000834806
0.000826245
-0.000394251
0.00118234
0.000141769
0.00162882
0.000742525
0.00215363
0.00136711
0.00198433
0.00280763
1.11288e-05
-0.000629082
-6.1454e-06
-0.00114323
-2.88595e-05
-0.00126346
-2.34486e-05
-0.00115385
3.6669e-05
-0.000894924
0.000169331
-0.000526913
0.000386228
-7.51282e-05
0.000695615
0.000433138
0.00110474
0.000957982
0.00142014
0.00166893
-5.78157e-05
-0.000571267
-0.000193782
-0.00100726
-0.000351444
-0.0011058
-0.00048486
-0.00102043
-0.000562651
-0.000817133
-0.000564267
-0.000525297
-0.000474925
-0.00016447
-0.00028171
0.000239922
3.18544e-05
0.000644418
0.000955438
0.000496559
-0.000134428
-0.000436839
-0.000389478
-0.000752212
-0.000675267
-0.000820009
-0.000936171
-0.000759528
-0.0011364
-0.000616904
-0.00125075
-0.00041095
-0.00125956
-0.000155653
-0.00114721
0.00012757
-0.000901879
0.000399087
0.000583354
-0.000529795
-0.000199787
-0.000237052
-0.000549869
-0.000402131
-0.000933767
-0.00043611
-0.00128912
-0.000404173
-0.00157613
-0.000329894
-0.00176466
-0.000222423
-0.00183102
-8.9294e-05
-0.0017603
5.68508e-05
-0.00155335
0.000192135
0.00027655
-0.00124654
-0.000237189
-0.000639534
-0.00107586
-0.0014802
-0.0018102
-0.00203267
-0.00212193
-0.00206498
-0.00187269
-0.00159596
0.00439757
-0.00599638
2.92629e-06
0.00631285
-0.00191486
-4.15691e-07
0.00707206
-0.000758679
-5.27419e-07
0.00731394
-0.000241637
-2.46211e-07
0.00735672
-4.26033e-05
-1.77905e-07
0.00732978
2.70081e-05
-6.60242e-08
0.00727639
5.34757e-05
-8.3158e-08
0.00721106
6.54138e-05
-8.54234e-08
0.00714052
7.04858e-05
5.21066e-08
7.44783e-05
5.07411e-08
0.00432579
-0.0115685
0.00627705
-0.00386613
0.00703888
-0.00152051
0.00728497
-0.000487732
0.00733258
-9.02131e-05
0.00731046
4.91335e-05
0.0072619
0.000102039
0.0072014
0.000125909
0.0071357
0.000136191
0.000144173
0.00429238
-0.0163902
0.00621716
-0.00579091
0.00697418
-0.00227752
0.00722744
-0.000740987
0.00728448
-0.000147261
0.00727194
6.16789e-05
0.007233
0.000140975
0.00718214
0.000176767
0.00712608
0.00019226
0.000204228
0.00438476
-0.0202779
0.00614517
-0.00755132
0.00688004
-0.0030124
0.00714196
-0.0010029
0.00721276
-0.000218066
0.00721447
5.9974e-05
0.00718989
0.000165553
0.00715341
0.000213246
0.00711172
0.00023395
0.000249899
0.00458891
-0.0231973
0.00606479
-0.0090272
0.00675786
-0.00370547
0.00702926
-0.0012743
0.00711791
-0.000306713
0.00713841
3.94705e-05
0.00713283
0.000171141
0.00711537
0.000230697
0.00709272
0.000256609
0.00027653
0.00482716
-0.0252164
0.00597061
-0.0101707
0.00660811
-0.00434296
0.00689015
-0.00155635
0.00700058
-0.000417138
0.00704427
-4.22536e-06
0.00706217
0.000153243
0.00706828
0.000224593
0.00706918
0.000255703
0.000279583
0.00501031
-0.0264208
0.00584963
-0.01101
0.00643031
-0.00492364
0.00672552
-0.00185155
0.00686158
-0.0005532
0.00693267
-7.53168e-05
0.00697838
0.000107532
0.00701241
0.000190562
0.00704127
0.000226848
0.000254666
0.00504835
-0.0268528
0.00568323
-0.0116449
0.00622303
-0.00546344
0.00653633
-0.00216486
0.0067019
-0.000718763
0.00680435
-0.000177776
0.00688199
2.98935e-05
0.00694813
0.000124422
0.00700915
0.000165836
0.000197561
0.00494088
-0.0265992
0.00546596
-0.0121699
0.00598704
-0.00598452
0.00632401
-0.00250183
0.00652266
-0.000917411
0.00666018
-0.000315292
0.00677362
-8.35518e-05
0.00687584
2.22023e-05
0.00697301
6.86645e-05
0.000104251
0.00491101
-0.0260127
0.00522733
-0.0124863
0.0057346
-0.0064918
0.00609057
-0.0028578
0.00632427
-0.00115111
0.00650082
-0.000491842
0.0066539
-0.000236628
0.00679597
-0.000119867
0.00693309
-6.84593e-05
-2.90678e-05
0.0457267
-0.0157365
-0.0560029
0.04409
-0.0108495
0.0426515
-0.00505331
0.042407
-0.00261329
0.0425575
-0.00130162
0.0427068
-0.000641116
0.0428004
-0.000330194
0.0428545
-0.000174063
0.042888
-0.000101901
-4.36567e-05
0.0469267
-0.00800425
-0.0546589
0.0438576
-0.00778045
0.0429547
-0.00415042
0.0426795
-0.00233815
0.0427054
-0.00132744
0.0427817
-0.000717447
0.0428387
-0.000387231
0.0428746
-0.000209897
0.0428982
-0.000125506
-5.43153e-05
0.0460128
-0.00332527
-0.0506918
0.0439607
-0.00572829
0.0432647
-0.00345442
0.0429443
-0.00201783
0.0428564
-0.00123945
0.0428605
-0.000721623
0.0428806
-0.000407285
0.0428973
-0.000226633
0.0429101
-0.000138296
-6.04388e-05
0.0457523
-0.00116129
-0.0479163
0.0440859
-0.00406196
0.0434342
-0.00280265
0.0431189
-0.00170252
0.0429765
-0.00109708
0.0429312
-0.000676308
0.0429211
-0.000397224
0.0429207
-0.000226186
0.0429228
-0.00014048
-6.19556e-05
0.0455146
-3.2007e-05
-0.0466439
0.0441448
-0.00269211
0.0435403
-0.00219814
0.0432406
-0.00140281
0.0430725
-0.000929011
0.042993
-0.000596768
0.0429584
-0.000362715
0.042943
-0.000210769
0.0429354
-0.00013289
-5.90791e-05
0.0451391
0.000413126
-0.0455843
0.0441687
-0.00172166
0.0436177
-0.00164718
0.0433257
-0.00111078
0.0431458
-0.000749139
0.0430442
-0.000495127
0.0429909
-0.000309472
0.0429631
-0.000182973
0.0429471
-0.000116812
-5.22764e-05
0.0448295
0.000498951
-0.0449153
0.0441579
-0.00105008
0.0436704
-0.00115965
0.0433846
-0.000825005
0.0431996
-0.000564208
0.0430845
-0.000379964
0.0430176
-0.00024261
0.0429801
-0.000145458
0.0429571
-9.37788e-05
-4.21861e-05
0.0445907
0.000406516
-0.0444982
0.0441303
-0.000589661
0.0437042
-0.000733551
0.0434245
-0.000545336
0.0432372
-0.00037695
0.0431141
-0.000256839
0.0430379
-0.000166447
0.0429933
-0.00010082
0.042965
-6.54623e-05
-2.9557e-05
0.0444295
0.000222009
-0.044245
0.0441031
-0.000263227
0.0437238
-0.000354268
0.0434494
-0.000270902
0.043261
-0.000188574
0.0431335
-0.00012934
0.0430516
-8.45573e-05
0.0430023
-5.15365e-05
0.0429704
-3.36011e-05
-1.52053e-05
0.0443492
-0.0441272
0.044086
0.0437317
0.0434608
0.0432722
0.0431429
0.0430584
0.0430068
0.0429732
0.0534229
0.00146583
-0.052638
0.0542002
0.0020726
0.054933
0.00269851
0.0556253
0.00328597
0.0561998
0.00391664
0.0566664
0.00446915
0.0568698
0.00510748
0.0568497
0.00555724
0.0564163
0.006091
0.00588516
0.0478075
0.00114057
-0.0474823
0.0481884
0.00169177
0.048648
0.00223886
0.0491855
0.00274847
0.0498583
0.00324385
0.0506569
0.00367057
0.051682
0.00408235
0.0528166
0.00442268
0.0541124
0.00479519
0.00533861
0.045262
0.000831026
-0.0449524
0.0456632
0.00129049
0.046162
0.00174014
0.0467373
0.00217316
0.047382
0.00259916
0.0480385
0.00301409
0.0486924
0.00342843
0.049283
0.00383204
0.0498809
0.00419731
0.00452771
0.0434564
0.000637627
-0.043263
0.0437115
0.00103538
0.0440239
0.00142772
0.0443851
0.001812
0.0447991
0.00218516
0.0452689
0.00254426
0.0458168
0.00288053
0.0464499
0.00319897
0.0471646
0.0034826
0.00377603
0.0423136
0.000491192
-0.0421672
0.0425299
0.000819111
0.0428174
0.0011402
0.0431769
0.00145243
0.0436095
0.00175265
0.0441119
0.00204182
0.044677
0.00231543
0.0452945
0.00258144
0.0459515
0.00282559
0.00308368
0.0416651
0.000362868
-0.0415368
0.0418621
0.000622186
0.0421257
0.000876532
0.0424533
0.00112487
0.0428407
0.00136524
0.0432844
0.00159812
0.0437801
0.00181971
0.0443281
0.00203348
0.0449245
0.00222916
0.00242392
0.0412273
0.000256997
-0.0411214
0.0413988
0.000450693
0.0416344
0.000640958
0.0419324
0.000826864
0.0422908
0.00100682
0.0427081
0.00118076
0.0431818
0.0013461
0.0437102
0.00150501
0.044288
0.00165144
0.00179658
0.0409528
0.000164277
-0.0408601
0.0411106
0.000292872
0.0413323
0.000419254
0.0416164
0.000542776
0.0419608
0.000662451
0.0423634
0.000778164
0.0428211
0.000888423
0.0433317
0.000994364
0.0438907
0.00109245
0.00118903
0.0407934
7.9808e-05
-0.0407089
0.0409423
0.000143939
0.0411545
0.000207031
0.0414285
0.000268754
0.0417624
0.000328634
0.042154
0.000386567
0.0426005
0.000441843
0.0431
0.000494913
0.0436483
0.000544144
0.000592324
0.0407191
-0.0406393
0.040863
0.04107
0.0413388
0.0416674
0.042054
0.0424958
0.0429907
0.0435349
0.0474334
-0.00259401
-0.0484905
0.0476078
-0.00331431
0.0479898
-0.00293835
0.0484894
-0.00247741
0.0490514
-0.00196434
0.0496715
-0.00143829
0.0503518
-0.000898711
0.0510843
-0.000338653
0.0518505
0.000248639
0.000847727
0.0465235
-0.00327729
-0.0458402
0.0464846
-0.00327542
0.0464356
-0.00288933
0.0464516
-0.0024935
0.0465345
-0.00204719
0.0466559
-0.00155965
0.0468054
-0.00104828
0.0469877
-0.000520965
0.0472125
2.38633e-05
0.000577947
0.0453786
-0.00316735
-0.0454886
0.0451339
-0.00303069
0.0449217
-0.00267717
0.0447419
-0.00231365
0.0446139
-0.00191924
0.0445467
-0.00149241
0.0445414
-0.00104294
0.0446011
-0.000580697
0.0447356
-0.000110643
0.000361116
0.0444982
-0.00285713
-0.0448084
0.0441375
-0.00267008
0.0438257
-0.00236537
0.0435573
-0.00204523
0.0433407
-0.00170265
0.0431864
-0.00133811
0.0431001
-0.000956648
0.0430836
-0.000564185
0.0431382
-0.000165222
0.000236341
0.0438104
-0.00244929
-0.0442182
0.0433985
-0.00225824
0.0430357
-0.00200255
0.0427233
-0.00173283
0.0424668
-0.0014462
0.0422722
-0.00114351
0.0421435
-0.000827915
0.0420825
-0.000503228
0.0420903
-0.000172999
0.000159517
0.0433455
-0.00199071
-0.043804
0.0429116
-0.00182436
0.0425285
-0.00161942
0.0421983
-0.00140266
0.0419253
-0.00117326
0.041714
-0.000932144
0.0415676
-0.000681521
0.0414884
-0.00042407
0.0414779
-0.000162505
0.000100625
0.0430577
-0.00150734
-0.0435411
0.0426106
-0.00137726
0.0422148
-0.0012236
0.0418728
-0.00106069
0.0415882
-0.000888652
0.0413645
-0.0007084
0.0412044
-0.000521449
0.04111
-0.000329602
0.0410822
-0.000134734
6.1374e-05
0.0428804
-0.00101027
-0.0433774
0.0424249
-0.000921742
0.0420207
-0.000819419
0.0416708
-0.000710764
0.0413783
-0.000596164
0.0411462
-0.000476316
0.0409769
-0.000352192
0.0408722
-0.00022491
0.0408332
-9.56487e-05
3.44519e-05
0.0427785
-0.000506302
-0.0432824
0.0423184
-0.000461694
0.0419096
-0.000410607
0.0415552
-0.000356314
0.0412581
-0.00029909
0.0410211
-0.000239313
0.0408464
-0.000177459
0.0407355
-0.000114066
0.0406896
-4.96936e-05
1.51095e-05
0.0427324
-0.0432387
0.0422707
0.0418601
0.0415038
0.0412047
0.0409654
0.0407879
0.0406738
0.0406241
0.0429231
0.000115886
-0.000110093
0.0428791
0.0004068
-0.000362725
0.0428713
0.000608892
-0.000601118
0.0428707
0.000901646
-0.000901083
0.0429433
0.00109277
-0.00116538
0.043055
0.00146662
-0.00157828
0.0433915
0.00161125
-0.0019478
0.0439774
0.00201668
-0.00260251
0.0452623
0.00188939
-0.00317436
0.00112873
-0.00435691
0.0429497
9.50805e-05
0.0430459
0.00031059
0.0431814
0.000473438
0.0434174
0.000665689
0.043719
0.000791149
0.0441931
0.000992517
0.0447256
0.00107872
0.0454655
0.00127683
0.0460586
0.00129629
0.0013471
0.0429589
6.5099e-05
0.0430714
0.000198143
0.0432275
0.000317301
0.0434482
0.000445022
0.0437046
0.000534733
0.0440273
0.000669827
0.0443558
0.000750146
0.0447423
0.000890411
0.0451278
0.000910767
0.000986329
0.0429514
4.25838e-05
0.0430221
0.000127458
0.0431255
0.000213976
0.0432669
0.000303543
0.0434306
0.000371086
0.0436364
0.000463958
0.0438631
0.000523497
0.0441476
0.000605887
0.0444494
0.000608959
0.000627386
0.0429424
2.90814e-05
0.0429827
8.71916e-05
0.0430495
0.000147143
0.0431458
0.000207249
0.0432638
0.000253155
0.0434148
0.000312889
0.0435863
0.00035204
0.0437914
0.000400759
0.0439991
0.000401292
0.000408267
0.0429381
1.98775e-05
0.0429663
5.90254e-05
0.0430145
9.89098e-05
0.043084
0.000137771
0.0431692
0.000168006
0.0432754
0.000206667
0.0433937
0.00023368
0.0435299
0.000264596
0.0436656
0.000265582
0.000269836
0.0429359
1.29527e-05
0.0429567
3.82068e-05
0.0429915
6.40663e-05
0.0430405
8.87744e-05
0.0431
0.000108471
0.0431735
0.000133244
0.0432557
0.000151479
0.0433496
0.000170632
0.0434439
0.000171327
0.000172634
0.0429341
7.75787e-06
0.0429495
2.28646e-05
0.0429751
3.84071e-05
0.0430109
5.30327e-05
0.0430545
6.48611e-05
0.0431082
7.95074e-05
0.043169
9.06581e-05
0.043238
0.000101688
0.0433071
0.000102158
0.000102334
0.042933
3.64092e-06
0.0429452
1.07208e-05
0.0429656
1.80056e-05
0.0429938
2.47917e-05
0.0430284
3.0324e-05
0.0430708
3.71214e-05
0.043119
4.24143e-05
0.0431732
4.74766e-05
0.0432276
4.77249e-05
4.75328e-05
0.0429326
0.0429433
0.0429613
0.0429861
0.0430164
0.0430535
0.0430959