/*--------------------------------*- C++ -*----------------------------------*\
  =========                 |
  \\      /  F ield         | OpenFOAM: The Open Source CFD Toolbox
   \\    /   O peration     | Website:  https://openfoam.org
    \\  /    A nd           | Version:  6.0
     \\/     M anipulation  |
\*---------------------------------------------------------------------------*/
FoamFile
{
    version     2.0;
    format      ascii;
    class       volVectorField;
    location    "2";
    object      U;
}
// * * * * * * * * * * * * * * * * * * * * * * * * * * * * * * * * * * * * * //

dimensions      [0 1 -1 0 0 0 0];

internalField   nonuniform List<vector> 
2000
(
(-0.0270955 0.0232208 6.01481e-20)
(-0.0954457 0.0372849 5.98637e-20)
(-0.179396 0.0372368 -5.44032e-20)
(-0.248413 0.031062 -1.08342e-19)
(-0.29643 0.0214043 -7.42584e-20)
(-0.322514 0.00922874 9.37456e-20)
(-0.325898 -0.00459576 5.1114e-20)
(-0.30773 -0.0186538 -2.03665e-20)
(-0.272692 -0.0305358 -4.58455e-20)
(-0.227042 -0.0370167 2.41581e-20)
(-0.0294269 0.0659471 -1.52824e-19)
(-0.0930609 0.107518 1.76662e-19)
(-0.167742 0.108581 1.82059e-20)
(-0.227459 0.091532 -9.27405e-20)
(-0.266953 0.0641588 4.41625e-19)
(-0.285691 0.0293541 -1.89072e-19)
(-0.283304 -0.0105034 -1.95445e-19)
(-0.260549 -0.0516162 2.24662e-19)
(-0.220836 -0.0873393 -1.92036e-19)
(-0.172357 -0.108048 8.1127e-20)
(-0.0333148 0.0985335 2.50794e-20)
(-0.0888257 0.165458 1.01226e-20)
(-0.146701 0.17063 5.22132e-19)
(-0.188964 0.146556 1.87762e-19)
(-0.211934 0.105684 4.72721e-20)
(-0.215725 0.0529135 2.82952e-19)
(-0.200734 -0.00833445 -5.16339e-19)
(-0.167592 -0.0730548 3.69218e-21)
(-0.117587 -0.132131 -2.74827e-19)
(-0.0600674 -0.170294 1.95923e-19)
(-0.0375459 0.116895 -5.01874e-20)
(-0.0837671 0.204624 2.48537e-19)
(-0.120611 0.217072 -6.70725e-19)
(-0.139916 0.190786 -8.28794e-20)
(-0.140299 0.141827 -4.79825e-19)
(-0.122629 0.0772489 4.95872e-19)
(-0.0881185 0.00133728 -5.09388e-19)
(-0.0380607 -0.080846 3.40631e-19)
(0.0276695 -0.160259 1.35072e-19)
(0.103582 -0.218852 -9.08071e-20)
(-0.0409659 0.120378 -5.87025e-19)
(-0.0790506 0.221473 4.08841e-21)
(-0.0947025 0.242606 8.53815e-19)
(-0.0892952 0.21814 2.68396e-19)
(-0.0642848 0.165975 -7.80386e-19)
(-0.0214109 0.0951547 4.78165e-19)
(0.0375819 0.0110605 5.34319e-19)
(0.110403 -0.0812477 -4.57062e-19)
(0.195512 -0.174464 3.13917e-19)
(0.298498 -0.252721 6.18767e-20)
(-0.0429416 0.111765 8.02503e-20)
(-0.0754218 0.216556 1.42278e-20)
(-0.0730316 0.24471 -1.08145e-18)
(-0.0445318 0.223923 -6.00328e-19)
(0.00577587 0.17179 7.07635e-19)
(0.0752119 0.0985528 -8.07752e-19)
(0.161605 0.0107656 9.25019e-19)
(0.261859 -0.0856457 -8.06649e-20)
(0.368591 -0.184475 -2.56137e-19)
(0.502668 -0.275844 -5.00103e-19)
(-0.043592 0.0960394 -1.71918e-19)
(-0.0728342 0.194508 -2.54503e-19)
(-0.0566515 0.224992 -3.07831e-19)
(-0.00794537 0.206982 6.19246e-19)
(0.0669082 0.156038 1.15626e-18)
(0.164375 0.0825586 -2.24774e-19)
(0.281157 -0.00595438 -5.80989e-19)
(0.412439 -0.10205 1.71096e-19)
(0.542279 -0.198919 -1.00762e-18)
(0.704043 -0.292446 8.14591e-19)
(-0.0436062 0.0784259 1.04288e-18)
(-0.0702948 0.162441 -4.55925e-19)
(-0.0427406 0.189023 8.68453e-19)
(0.0252059 0.170746 -1.36908e-18)
(0.12621 0.120417 -6.53666e-19)
(0.255441 0.0479587 -8.92553e-19)
(0.406324 -0.0383049 2.41896e-19)
(0.569242 -0.129686 -7.06462e-19)
(0.720713 -0.217953 1.49146e-18)
(0.897203 -0.302345 2.79351e-19)
(-0.0436427 0.0626532 5.88652e-20)
(-0.0656682 0.127369 7.41969e-19)
(-0.0247892 0.144467 1.39157e-18)
(0.0660965 0.122528 4.28183e-19)
(0.198787 0.0720462 1.21483e-18)
(0.364677 0.00250453 6.98502e-20)
(0.550113 -0.0771446 -1.97478e-20)
(0.737639 -0.158508 4.59843e-19)
(0.901948 -0.232152 3.7059e-19)
(1.0717 -0.301236 -8.89322e-19)
(-0.0436538 0.0501817 -5.84477e-19)
(-0.0555991 0.0940929 -8.10452e-19)
(0.00590356 0.0986007 -1.13719e-18)
(0.128455 0.0713878 1.11899e-20)
(0.30042 0.0218548 -5.55561e-19)
(0.504494 -0.0407985 8.50765e-19)
(0.716481 -0.108039 -2.30397e-18)
(0.911838 -0.173819 1.0067e-18)
(1.07048 -0.228334 3.73819e-19)
(1.20835 -0.285275 8.0644e-19)
(-0.0426205 0.0405136 2.93198e-19)
(-0.0360247 0.0645273 -9.0785e-19)
(0.0575103 0.0565845 7.7088e-19)
(0.222662 0.0256286 -2.92008e-19)
(0.438663 -0.0191276 3.0452e-19)
(0.674765 -0.0694721 6.53421e-19)
(0.897302 -0.119144 -8.45686e-19)
(1.08076 -0.165139 1.07138e-19)
(1.21198 -0.200648 -3.66471e-19)
(1.29158 -0.255251 3.3296e-19)
(-0.0388321 0.0321923 4.00898e-19)
(-0.00303864 0.0385091 -8.1321e-19)
(0.135355 0.0213258 1.06421e-18)
(0.351618 -0.00863274 -6.38602e-19)
(0.608609 -0.0431193 -2.28181e-19)
(0.861738 -0.0768842 1.28479e-19)
(1.07531 -0.107318 8.24851e-20)
(1.23197 -0.133118 8.11833e-19)
(1.32788 -0.152644 2.27263e-19)
(1.38072 -0.175153 5.34188e-19)
(-0.0303762 0.0238871 -3.53703e-19)
(0.0466246 0.0154404 1.04434e-18)
(0.241327 -0.00517003 -8.45916e-19)
(0.510443 -0.0272016 -9.62384e-19)
(0.795672 -0.0463723 1.28448e-18)
(1.04537 -0.0623378 -9.23145e-19)
(1.23206 -0.0758675 2.35347e-19)
(1.3514 -0.0874053 -1.1736e-18)
(1.41279 -0.0959956 8.34369e-19)
(1.43426 -0.107739 1.21243e-20)
(-0.0154803 0.015063 -4.60127e-19)
(0.115471 -0.00418438 -3.74929e-19)
(0.373953 -0.0202894 -7.77892e-19)
(0.688161 -0.0273487 8.91454e-19)
(0.981586 -0.0288888 -3.89758e-20)
(1.20804 -0.0293499 5.20371e-19)
(1.35627 -0.0309833 8.50602e-19)
(1.43654 -0.0337294 -2.51753e-19)
(1.46631 -0.0368024 -6.90864e-19)
(1.46515 -0.041874 1.04399e-18)
(0.00736424 0.00611708 -2.40915e-19)
(0.204884 -0.0180837 -2.43223e-19)
(0.527857 -0.0206429 4.27557e-19)
(0.870186 -0.00818648 -7.4307e-19)
(1.15008 0.00637237 1.26607e-19)
(1.33919 0.0165216 1.03534e-19)
(1.4453 0.0211282 1.77745e-20)
(1.48994 0.0216727 -3.13935e-20)
(1.49504 0.0196257 -1.08694e-19)
(1.47887 0.016751 -8.63974e-19)
(0.0393551 -0.00179148 9.92348e-19)
(0.314252 -0.022502 -5.88196e-19)
(0.693492 -0.00342952 7.12571e-21)
(1.04182 0.0288121 -8.07974e-19)
(1.29049 0.0547908 -2.57425e-19)
(1.4359 0.0698453 2.4791e-19)
(1.50247 0.0757693 1.49151e-19)
(1.51846 0.075931 -5.33847e-19)
(1.50619 0.0729595 3.73851e-19)
(1.48074 0.0698977 -3.76657e-19)
(0.0812479 -0.00694728 4.3775e-19)
(0.439942 -0.0132919 -3.41661e-19)
(0.858728 0.0320735 1.29834e-18)
(1.19169 0.0802594 1.22683e-19)
(1.39854 0.111585 2.67676e-19)
(1.50061 0.126408 1.06204e-18)
(1.53393 0.130066 -1.69532e-19)
(1.52883 0.127531 1.04302e-19)
(1.50538 0.122176 2.73767e-20)
(1.47541 0.117916 -5.16565e-20)
(0.133076 -0.00725756 3.17132e-19)
(0.574989 0.0126584 6.31695e-19)
(1.01189 0.0842185 -6.34419e-19)
(1.31332 0.142013 -1.91551e-19)
(1.47483 0.172795 -2.16344e-19)
(1.53831 0.183489 3.20668e-19)
(1.54591 0.182631 -1.46715e-19)
(1.52656 0.176229 3.74496e-19)
(1.49673 0.16821 1.087e-19)
(1.46476 0.161811 -1.44082e-19)
(0.193791 -0.000504177 -3.4514e-19)
(0.710175 0.056308 2.63179e-19)
(1.14418 0.149768 -5.18269e-19)
(1.40461 0.210129 2.04341e-19)
(1.52257 0.235525 -1.95711e-19)
(1.55436 0.23949 -2.19032e-19)
(1.54349 0.23287 -1.55691e-19)
(1.51531 0.222058 1.6438e-19)
(1.48228 0.211001 -2.83303e-19)
(1.45009 0.201848 1.3854e-19)
(0.261006 0.0152697 -1.26758e-19)
(0.836121 0.116241 -2.0872e-19)
(1.25038 0.224834 9.39922e-20)
(1.46643 0.281267 7.84685e-21)
(1.54592 0.297761 6.44766e-20)
(1.5534 0.293507 7.70494e-20)
(1.53028 0.280587 6.27742e-20)
(1.49728 0.265211 -8.15407e-20)
(1.46316 0.251027 6.32728e-20)
(1.43169 0.238526 -7.72157e-20)
(0.331036 0.0413068 -7.96792e-20)
(0.945117 0.189274 -2.75183e-20)
(1.32828 0.305474 8.50398e-20)
(1.50117 0.352708 -3.88513e-20)
(1.54886 0.358061 8.26442e-20)
(1.53899 0.344931 -9.96732e-20)
(1.5086 0.325587 2.33691e-20)
(1.4736 0.305627 2.20722e-20)
(1.43973 0.28806 -7.59055e-21)
(1.40969 0.271701 2.44988e-20)
(0.399312 0.0777701 -9.33639e-20)
(1.03192 0.271311 -3.25244e-19)
(1.37786 0.387986 -1.87165e-20)
(1.51179 0.422213 4.50087e-21)
(1.53484 0.415288 -2.92907e-19)
(1.51367 0.393212 3.69729e-20)
(1.47982 0.367597 -2.94093e-20)
(1.44481 0.343156 -6.45652e-20)
(1.41215 0.322078 1.26632e-19)
(1.38413 0.301616 -1.80004e-19)
(0.46107 0.123597 -5.132e-20)
(1.09362 0.357988 6.89827e-19)
(1.40044 0.469008 7.24498e-20)
(1.50132 0.487866 -4.84969e-19)
(1.50661 0.468402 -4.83897e-20)
(1.47919 0.437708 -3.6438e-19)
(1.4448 0.406132 2.48306e-19)
(1.41123 0.377354 -8.42402e-20)
(1.38055 0.352643 1.47819e-19)
(1.35506 0.328008 -8.51182e-20)
(0.512064 0.176613 -2.94386e-19)
(1.12926 0.445031 2.4089e-19)
(1.39815 0.545555 -1.3859e-19)
(1.47262 0.547964 9.42928e-19)
(1.46641 0.516367 3.9874e-19)
(1.43683 0.477657 -8.52468e-20)
(1.40411 0.440566 2.7934e-19)
(1.37313 0.407704 -1.71407e-19)
(1.34512 0.379437 -4.46768e-20)
(1.32269 0.350929 2.46188e-19)
(0.549068 0.233813 -5.26618e-19)
(1.13929 0.528421 5.7688e-19)
(1.37357 0.614986 -9.33016e-19)
(1.42835 0.600934 1.2898e-19)
(1.41606 0.558114 2.19199e-19)
(1.38762 0.512192 -3.15159e-19)
(1.35831 0.470131 -3.58549e-19)
(1.3309 0.433512 1.59759e-19)
(1.30625 0.401908 -1.85072e-19)
(1.28733 0.370046 1.93133e-19)
(0.570119 0.29172 -1.32612e-19)
(1.12521 0.60446 -5.76379e-19)
(1.3295 0.674947 2.84202e-19)
(1.37096 0.645287 4.12263e-19)
(1.35724 0.592534 -2.23917e-19)
(1.33258 0.540403 -1.51668e-19)
(1.30816 0.494069 -1.13903e-19)
(1.28525 0.454144 -4.84125e-20)
(1.26471 0.419615 4.65302e-22)
(1.24986 0.385206 1.13937e-19)
(0.574526 0.346739 1.55785e-19)
(1.08927 0.669832 -6.18392e-19)
(1.26878 0.723342 8.01536e-19)
(1.30268 0.679553 -4.31414e-19)
(1.29139 0.618408 1.24162e-19)
(1.27272 0.561243 -1.53895e-19)
(1.25455 0.511513 1.52818e-19)
(1.23728 0.468874 6.82667e-20)
(1.22193 0.431949 7.01958e-20)
(1.21195 0.395938 -9.19963e-20)
(0.562761 0.395486 -4.65216e-19)
(1.03429 0.721718 6.69344e-19)
(1.1943 0.758391 -3.13772e-20)
(1.22558 0.702343 -1.50304e-19)
(1.21973 0.634364 -1.65973e-19)
(1.20876 0.573289 2.86845e-20)
(1.19817 0.521065 -7.40344e-20)
(1.18808 0.476437 4.05045e-22)
(1.17956 0.437909 -8.01509e-21)
(1.17541 0.40171 1.86055e-20)
(0.536288 0.435052 5.6847e-19)
(0.963536 0.757926 -1.86418e-19)
(1.10897 0.778806 -1.11105e-19)
(1.14158 0.712658 2.66675e-19)
(1.14326 0.639262 -1.39005e-19)
(1.14096 0.574933 -5.25818e-22)
(1.13888 0.520399 -8.68362e-20)
(1.13751 0.473798 -4.39437e-20)
(1.13753 0.434321 -5.89323e-20)
(1.13944 0.400368 2.36484e-20)
(0.497355 0.463155 -3.93183e-19)
(0.88063 0.776918 1.73744e-19)
(1.01585 0.783873 -8.75713e-20)
(1.05278 0.710257 -5.08946e-20)
(1.06312 0.633137 6.40749e-21)
(1.06955 0.566095 1.99701e-19)
(1.07587 0.508504 -6.06763e-20)
(1.08352 0.457757 6.02589e-20)
(1.09193 0.414663 9.47511e-20)
(1.09705 0.38412 2.72853e-19)
(0.448748 0.478158 1.20354e-20)
(0.789456 0.777696 -3.96705e-20)
(0.918181 0.773182 3.69244e-19)
(0.961647 0.695276 -7.39233e-20)
(0.98123 0.617094 4.36708e-19)
(0.995944 0.549553 2.72422e-19)
(1.00955 0.490492 -6.11232e-19)
(1.0245 0.435329 9.13433e-19)
(1.03875 0.381695 -1.89625e-19)
(1.03695 0.337275 3.26328e-19)
(0.393526 0.479048 -6.20756e-20)
(0.693946 0.759747 -1.63371e-19)
(0.819285 0.746379 1.72183e-19)
(0.870982 0.66724 -2.99625e-19)
(0.900488 0.590698 -9.76886e-19)
(0.923698 0.525914 -3.88935e-19)
(0.943989 0.470861 -3.23641e-19)
(0.96314 0.422698 1.60529e-19)
(0.97679 0.381611 1.26268e-18)
(0.972711 0.351669 -2.25482e-19)
(0.334821 0.465456 1.22744e-19)
(0.597897 0.723187 -4.28985e-19)
(0.72224 0.703613 1.00674e-19)
(0.78325 0.62584 -6.89456e-19)
(0.823324 0.552178 1.44293e-18)
(0.856 0.489726 -1.6413e-19)
(0.884156 0.435924 7.31847e-19)
(0.908933 0.388067 -9.91532e-19)
(0.92659 0.347367 3.06099e-19)
(0.928575 0.320496 4.11971e-20)
(0.275718 0.437609 7.36237e-20)
(0.504956 0.668732 4.79833e-19)
(0.629948 0.645747 -1.52029e-18)
(0.700373 0.572513 6.92139e-19)
(0.750245 0.504755 2.35486e-21)
(0.791269 0.448201 -2.19495e-19)
(0.826333 0.40041 2.64876e-19)
(0.856641 0.3587 -2.50246e-19)
(0.879322 0.322905 -8.24863e-19)
(0.88825 0.296844 -1.99412e-19)
(0.219128 0.396225 3.22075e-19)
(0.418583 0.597436 3.34778e-19)
(0.545495 0.573329 1.32404e-18)
(0.625403 0.506691 -7.05365e-19)
(0.684807 0.44577 1.38113e-18)
(0.733772 0.394968 -2.84285e-19)
(0.775237 0.352151 -2.82839e-19)
(0.810848 0.31536 3.18852e-19)
(0.838749 0.284557 2.02078e-19)
(0.854319 0.262176 6.35859e-19)
(0.167638 0.342547 -3.72395e-19)
(0.341644 0.511097 9.57687e-20)
(0.470943 0.488215 2.84285e-20)
(0.559469 0.430685 7.31373e-19)
(0.627358 0.378791 -1.72922e-18)
(0.683445 0.335808 2.84185e-19)
(0.730702 0.299738 5.81398e-19)
(0.771058 0.268772 -6.77219e-19)
(0.803629 0.242591 2.29999e-19)
(0.825348 0.22287 -9.26889e-19)
(0.12357 0.2782 8.1547e-20)
(0.27688 0.411736 3.76828e-19)
(0.408717 0.391858 1.42552e-19)
(0.504696 0.345063 1.76811e-19)
(0.57974 0.303178 3.16794e-19)
(0.6418 0.268615 8.83173e-19)
(0.693958 0.23979 -1.03136e-18)
(0.73839 0.215257 -5.51094e-19)
(0.775025 0.194527 8.95372e-20)
(0.802056 0.178532 6.05015e-19)
(0.0887985 0.20517 -4.94976e-19)
(0.22637 0.301881 -4.90407e-20)
(0.360463 0.286583 -3.95192e-19)
(0.462369 0.252109 5.1927e-20)
(0.543026 0.221444 -3.00561e-19)
(0.609736 0.196196 -3.24761e-19)
(0.665676 0.175185 -4.57227e-19)
(0.713262 0.157348 1.17879e-18)
(0.753141 0.142237 1.93719e-19)
(0.784475 0.13038 -2.59113e-19)
(0.064787 0.125727 2.66978e-19)
(0.191762 0.184285 3.02497e-19)
(0.327523 0.17465 1.11283e-19)
(0.433535 0.153526 -5.69145e-19)
(0.518051 0.13481 -2.49182e-19)
(0.587957 0.119434 -5.1449e-20)
(0.646492 0.10667 9.47298e-20)
(0.696245 0.0958616 7.28809e-20)
(0.738389 0.0866888 -5.3483e-19)
(0.77274 0.0794103 2.68222e-19)
(0.0525305 0.0423551 -1.40894e-19)
(0.174179 0.0619654 -1.35546e-19)
(0.310826 0.0586786 1.02144e-19)
(0.418937 0.0515644 8.50269e-20)
(0.505417 0.0452731 8.2417e-20)
(0.576946 0.0401088 1.18009e-19)
(0.636799 0.0358266 -7.03382e-21)
(0.687658 0.032205 -1.41368e-19)
(0.730975 0.0291298 1.28047e-19)
(0.766883 0.0266782 -1.67815e-19)
(0.05253 -0.0423419 -1.42546e-19)
(0.174178 -0.0619454 -1.30004e-19)
(0.310825 -0.0586583 1.12585e-19)
(0.418936 -0.0515452 2.05841e-19)
(0.505416 -0.0452552 1.28063e-19)
(0.576945 -0.0400923 -1.60586e-19)
(0.636798 -0.0358113 -8.17498e-20)
(0.687658 -0.0321909 3.5383e-20)
(0.730974 -0.0291166 7.478e-20)
(0.766883 -0.0266657 -3.86746e-20)
(0.0647855 -0.125714 3.38845e-19)
(0.19176 -0.184265 -3.61317e-19)
(0.327521 -0.17463 -2.88075e-20)
(0.433532 -0.153507 1.77788e-19)
(0.518049 -0.134793 -7.55942e-19)
(0.587955 -0.119418 3.05632e-19)
(0.64649 -0.106655 2.97972e-19)
(0.696243 -0.0958475 -3.37997e-19)
(0.738387 -0.0866757 3.0965e-19)
(0.772738 -0.0793979 -1.19812e-19)
(0.088796 -0.205157 -5.67219e-20)
(0.226366 -0.301861 -1.80642e-21)
(0.360458 -0.286563 -9.17102e-19)
(0.462365 -0.25209 -2.69954e-19)
(0.543022 -0.221426 -2.20692e-20)
(0.609732 -0.19618 -3.98268e-19)
(0.665672 -0.17517 7.08835e-19)
(0.713259 -0.157334 -2.59767e-20)
(0.753138 -0.142224 3.74792e-19)
(0.784473 -0.130368 -2.83984e-19)
(0.123566 -0.278187 9.48121e-20)
(0.276875 -0.411717 -3.75791e-19)
(0.408711 -0.391839 1.10037e-18)
(0.504691 -0.345044 1.48514e-19)
(0.579735 -0.303161 6.78433e-19)
(0.641796 -0.268599 -6.25203e-19)
(0.693954 -0.239775 6.27498e-19)
(0.738386 -0.215244 -4.36961e-19)
(0.775021 -0.194515 -1.86282e-19)
(0.802053 -0.17852 1.34626e-19)
(0.167634 -0.342534 8.1234e-19)
(0.341637 -0.511078 1.87641e-20)
(0.470935 -0.488196 -1.13268e-18)
(0.559462 -0.430667 -3.0943e-19)
(0.627351 -0.378774 9.83984e-19)
(0.683438 -0.335792 -5.46757e-19)
(0.730696 -0.299724 -5.98358e-19)
(0.771053 -0.268759 5.20609e-19)
(0.803624 -0.242579 -3.39594e-19)
(0.825344 -0.222858 -6.42429e-20)
(0.219122 -0.396213 -1.24219e-19)
(0.418575 -0.597417 -7.94989e-21)
(0.545486 -0.57331 1.18638e-18)
(0.625394 -0.506674 6.561e-19)
(0.684799 -0.445754 -7.3343e-19)
(0.733764 -0.394953 8.521e-19)
(0.77523 -0.352138 -8.69347e-19)
(0.810841 -0.315348 8.7431e-20)
(0.838743 -0.284545 2.42899e-19)
(0.854314 -0.262165 4.83713e-19)
(0.275711 -0.437597 1.05686e-19)
(0.504946 -0.668714 1.48282e-19)
(0.629938 -0.645729 1.70306e-19)
(0.700363 -0.572496 -5.82203e-19)
(0.750235 -0.504739 -9.97124e-19)
(0.79126 -0.448186 2.03692e-19)
(0.826324 -0.400397 5.63895e-19)
(0.856633 -0.358688 -1.55046e-19)
(0.879315 -0.322894 8.89079e-19)
(0.888243 -0.296834 -7.56461e-19)
(0.334813 -0.465444 -5.65119e-19)
(0.597885 -0.72317 1.33281e-19)
(0.722227 -0.703596 -5.9202e-19)
(0.783238 -0.625824 9.36648e-19)
(0.823313 -0.552163 4.61223e-19)
(0.855989 -0.489713 6.17075e-19)
(0.884146 -0.435911 -1.32793e-19)
(0.908923 -0.388056 5.20061e-19)
(0.926581 -0.347357 -1.06558e-18)
(0.928567 -0.320488 -2.42659e-19)
(0.393517 -0.479037 1.21971e-19)
(0.693933 -0.75973 -2.55515e-19)
(0.819271 -0.746363 -4.77035e-19)
(0.870968 -0.667224 -2.61456e-19)
(0.900476 -0.590684 -6.75375e-19)
(0.923686 -0.525901 -7.2689e-20)
(0.943977 -0.47085 5.93251e-20)
(0.96313 -0.422688 -2.30226e-19)
(0.97678 -0.381602 -2.60872e-19)
(0.972702 -0.351661 5.87989e-19)
(0.448738 -0.478147 2.09713e-20)
(0.789441 -0.77768 7.52212e-20)
(0.918165 -0.773167 3.67292e-19)
(0.961632 -0.695262 5.2314e-20)
(0.981216 -0.61708 2.71911e-19)
(0.995931 -0.549541 -3.41975e-19)
(1.00953 -0.490481 1.02503e-18)
(1.02449 -0.435319 -4.35517e-19)
(1.03874 -0.381688 -2.13961e-19)
(1.03694 -0.337269 -5.56944e-19)
(0.497345 -0.463145 3.01694e-22)
(0.880614 -0.776902 -1.52127e-19)
(1.01583 -0.783858 5.15603e-20)
(1.05276 -0.710244 3.07656e-20)
(1.0631 -0.633124 -4.47594e-20)
(1.06953 -0.566084 -1.50254e-19)
(1.07586 -0.508494 1.89065e-19)
(1.08351 -0.457748 -7.62945e-20)
(1.09192 -0.414655 8.97268e-20)
(1.09704 -0.384113 -1.59293e-19)
(0.536276 -0.435042 1.88252e-19)
(0.963518 -0.757911 -3.87086e-19)
(1.10895 -0.778793 2.90568e-19)
(1.14157 -0.712645 -3.36026e-20)
(1.14324 -0.639251 -6.39362e-20)
(1.14094 -0.574923 2.53479e-20)
(1.13886 -0.52039 -2.31225e-21)
(1.13749 -0.473789 -1.08797e-19)
(1.13752 -0.434313 -6.48123e-20)
(1.13943 -0.400361 -1.16575e-19)
(0.562748 -0.395477 -2.57756e-19)
(1.03427 -0.721705 6.795e-19)
(1.19428 -0.758379 -3.52902e-19)
(1.22556 -0.702332 -1.88922e-19)
(1.21971 -0.634354 2.19237e-19)
(1.20874 -0.57328 -6.95984e-20)
(1.19815 -0.521057 2.56524e-20)
(1.18806 -0.47643 2.5589e-21)
(1.17954 -0.437902 -1.72245e-20)
(1.1754 -0.401704 2.73897e-21)
(0.574513 -0.346732 -4.31446e-19)
(1.08925 -0.66982 -2.67546e-19)
(1.26876 -0.723331 -4.4128e-19)
(1.30266 -0.679543 4.86428e-19)
(1.29137 -0.618399 -1.90039e-20)
(1.2727 -0.561235 1.44129e-19)
(1.25453 -0.511505 1.7996e-19)
(1.23726 -0.468867 -5.81162e-20)
(1.22192 -0.431943 -7.36883e-20)
(1.21194 -0.395933 1.03408e-19)
(0.570105 -0.291713 -2.52954e-19)
(1.12519 -0.604449 -2.60389e-19)
(1.32947 -0.674938 3.13548e-19)
(1.37093 -0.645279 -4.4772e-19)
(1.35722 -0.592527 8.38457e-20)
(1.33256 -0.540398 3.90225e-20)
(1.30814 -0.494064 5.07816e-20)
(1.28523 -0.454139 -3.32287e-20)
(1.2647 -0.41961 -4.57716e-20)
(1.24985 -0.385202 -2.15108e-19)
(0.549054 -0.233807 1.03088e-18)
(1.13927 -0.528412 -6.06946e-19)
(1.37355 -0.614978 1.34654e-20)
(1.42833 -0.600929 -6.08923e-19)
(1.41604 -0.558109 -1.44804e-19)
(1.3876 -0.512188 1.27769e-19)
(1.3583 -0.470128 7.82774e-20)
(1.33088 -0.433509 -2.57965e-19)
(1.30624 -0.401905 1.30343e-19)
(1.28731 -0.370044 -1.63859e-19)
(0.512049 -0.176609 4.7212e-19)
(1.12924 -0.445023 -3.48665e-19)
(1.39812 -0.54555 1.17462e-18)
(1.4726 -0.54796 6.6731e-20)
(1.46638 -0.516365 2.09343e-19)
(1.43681 -0.477656 6.7777e-19)
(1.40409 -0.440565 -1.32304e-19)
(1.37311 -0.407703 3.51256e-20)
(1.34511 -0.379436 -9.50755e-21)
(1.32268 -0.350928 -2.57455e-20)
(0.461055 -0.123594 3.39098e-19)
(1.09359 -0.357982 6.56413e-19)
(1.40041 -0.469004 -5.70627e-19)
(1.50129 -0.487865 -1.33368e-19)
(1.50659 -0.468403 -1.3598e-19)
(1.47917 -0.437709 2.60597e-19)
(1.44478 -0.406134 -1.12613e-19)
(1.41122 -0.377356 2.57535e-19)
(1.38053 -0.352644 6.17656e-20)
(1.35505 -0.328009 -8.64563e-20)
(0.399297 -0.0777682 -3.66104e-19)
(1.03189 -0.271307 2.65483e-19)
(1.37783 -0.387983 -5.07858e-19)
(1.51176 -0.422214 1.87214e-19)
(1.53481 -0.415291 -1.69639e-19)
(1.51365 -0.393216 -1.81381e-19)
(1.47981 -0.367602 -1.27118e-19)
(1.44479 -0.34316 1.34116e-19)
(1.41213 -0.322082 -2.22264e-19)
(1.38411 -0.30162 1.11783e-19)
(0.331021 -0.0413059 -1.30749e-19)
(0.945086 -0.189271 -2.11573e-19)
(1.32825 -0.305474 9.38026e-20)
(1.50114 -0.352711 8.93661e-21)
(1.54884 -0.358067 5.92806e-20)
(1.53897 -0.344938 7.38903e-20)
(1.50858 -0.325594 5.59529e-20)
(1.47358 -0.305635 -7.43197e-20)
(1.43971 -0.288068 5.6411e-20)
(1.40968 -0.271708 -6.95962e-20)
(0.260993 -0.0152698 -7.66855e-20)
(0.836088 -0.11624 -2.55588e-20)
(1.25034 -0.224835 8.76369e-20)
(1.4664 -0.281272 -3.94024e-20)
(1.54589 -0.297769 8.99075e-20)
(1.55338 -0.293517 -1.05742e-19)
(1.53026 -0.280597 2.72165e-20)
(1.49727 -0.265222 2.12962e-20)
(1.46315 -0.251038 -6.12947e-21)
(1.43168 -0.238536 2.41986e-20)
(0.193779 0.000503389 -8.37514e-20)
(0.710143 -0.0563085 -3.17844e-19)
(1.14414 -0.149771 -2.43137e-20)
(1.40458 -0.210135 8.46582e-21)
(1.52254 -0.235535 -3.40879e-19)
(1.55434 -0.239502 3.47561e-20)
(1.54347 -0.232884 -3.47005e-20)
(1.5153 -0.222072 -8.08623e-20)
(1.48227 -0.211015 1.6117e-19)
(1.45008 -0.201861 -2.28446e-19)
(0.133066 0.00725638 -4.41028e-20)
(0.574957 -0.0126605 6.71556e-19)
(1.01185 -0.0842226 8.56799e-20)
(1.31328 -0.142021 -5.40156e-19)
(1.47479 -0.172807 -7.22223e-20)
(1.53829 -0.183503 -5.0057e-19)
(1.54588 -0.182647 3.55965e-19)
(1.52654 -0.176245 -1.25422e-19)
(1.49671 -0.168227 2.32087e-19)
(1.46474 -0.161828 -1.44396e-19)
(0.0812407 0.00694602 -2.72851e-19)
(0.439912 0.0132884 2.59785e-19)
(0.858684 -0.032079 -1.72141e-19)
(1.19165 -0.0802688 1.16282e-18)
(1.3985 -0.111599 5.59685e-19)
(1.50058 -0.126425 -1.27672e-19)
(1.5339 -0.130085 4.83361e-19)
(1.52881 -0.127551 -2.82194e-19)
(1.50537 -0.122196 -6.57811e-20)
(1.4754 -0.117936 4.55222e-19)
(0.0393501 0.00179044 -5.0341e-19)
(0.314227 0.0224975 6.11445e-19)
(0.693448 0.00342251 -1.13434e-18)
(1.04177 -0.0288229 1.84085e-19)
(1.29044 -0.0548061 4.23835e-19)
(1.43586 -0.0698643 -5.09868e-19)
(1.50244 -0.0757908 -7.96581e-19)
(1.51844 -0.075954 4.02255e-19)
(1.50617 -0.0729829 -4.43054e-19)
(1.48073 -0.0699212 5.33861e-19)
(0.00736134 -0.00611767 -1.22838e-19)
(0.204864 0.018079 -6.27698e-19)
(0.527816 0.0206346 2.93337e-19)
(0.870133 0.00817417 7.0138e-19)
(1.15002 -0.00638928 -3.61808e-19)
(1.33914 -0.0165427 -3.28162e-19)
(1.44526 -0.0211525 -5.04432e-19)
(1.48992 -0.0216989 -1.79305e-19)
(1.49503 -0.0196526 -1.18572e-20)
(1.47886 -0.0167784 5.07193e-19)
(-0.0154814 -0.015063 2.00843e-19)
(0.115456 0.00418009 -8.33755e-19)
(0.373917 0.0202804 1.38101e-18)
(0.688108 0.027335 -7.28351e-19)
(0.981527 0.0288702 4.54694e-19)
(1.20798 0.0293266 -5.30199e-19)
(1.35623 0.0309563 5.60251e-19)
(1.4365 0.0336998 4.42421e-19)
(1.46628 0.0367717 7.62978e-19)
(1.46513 0.0418422 -9.53207e-19)
(-0.0303759 -0.0238865 -6.19635e-19)
(0.046614 -0.0154437 1.05895e-18)
(0.241298 0.00516127 1.95603e-20)
(0.510394 0.0271871 -3.43406e-19)
(0.79561 0.046352 -1.71148e-19)
(1.0453 0.0623123 1.23926e-19)
(1.232 0.0758376 -9.13736e-19)
(1.35136 0.087372 5.84798e-19)
(1.41276 0.0959609 -7.43132e-19)
(1.43424 0.107702 -2.03632e-19)
(-0.0388308 -0.0321912 1.07908e-18)
(-0.00304501 -0.0385112 -2.79921e-19)
(0.135333 -0.0213335 -5.12935e-19)
(0.351575 0.00861842 1.33622e-18)
(0.608548 0.0430981 -1.27067e-18)
(0.861668 0.0768565 6.82644e-19)
(1.07524 0.107285 6.77945e-19)
(1.23191 0.133081 1.56828e-19)
(1.32783 0.152604 1.56346e-19)
(1.3807 0.175111 -1.22664e-19)
(-0.0426187 -0.0405122 -1.04656e-18)
(-0.0360277 -0.064528 8.34625e-19)
(0.0574948 -0.05659 -7.02077e-19)
(0.222628 -0.0256411 8.58853e-19)
(0.438609 0.0191068 -2.43845e-19)
(0.674696 0.0694431 -8.48248e-19)
(0.897227 0.119108 2.40681e-19)
(1.08068 0.165097 -3.22992e-19)
(1.21192 0.200603 -3.29461e-19)
(1.29154 0.255201 -6.61693e-19)
(-0.0436519 -0.0501801 -1.35651e-18)
(-0.0555999 -0.0940914 8.8918e-19)
(0.00589306 -0.0986027 -1.66484e-18)
(0.128429 -0.0713966 2.88572e-19)
(0.300375 -0.0218728 -1.09353e-18)
(0.504429 0.0407703 -6.56062e-19)
(0.716404 0.108001 1.51944e-18)
(0.911756 0.173773 -2.04095e-18)
(1.0704 0.228285 3.90493e-19)
(1.20828 0.28522 -4.3607e-19)
(-0.043641 -0.0626508 6.74472e-19)
(-0.065668 -0.127364 2.47814e-19)
(-0.0247971 -0.144464 -8.33658e-20)
(0.0660754 -0.12253 6.12689e-19)
(0.198749 -0.0720585 1.79516e-18)
(0.36462 -0.0025287 6.26212e-19)
(0.550039 0.0771083 6.34007e-19)
(0.737553 0.158461 -2.21891e-19)
(0.901859 0.232098 -1.97895e-18)
(1.07161 0.301175 3.86333e-19)
(-0.0436046 -0.0784215 -2.01554e-19)
(-0.0702946 -0.16243 5.29285e-19)
(-0.0427488 -0.189011 -1.34658e-19)
(0.0251854 -0.17074 8.96635e-19)
(0.126175 -0.120421 -2.00064e-18)
(0.255389 -0.0479756 1.84564e-19)
(0.406254 0.0382734 -9.51684e-19)
(0.569158 0.129641 1.37778e-18)
(0.72062 0.217898 -3.94163e-19)
(0.897108 0.302278 -3.04345e-20)
(-0.0435903 -0.0960311 -1.36206e-19)
(-0.0728349 -0.194488 -6.33444e-19)
(-0.0566619 -0.224969 1.53972e-18)
(-0.00796863 -0.206964 -7.67086e-19)
(0.0668708 -0.156031 3.90839e-20)
(0.164323 -0.0825663 2.34661e-19)
(0.281089 0.00593017 -2.37837e-19)
(0.412356 0.102009 2.83672e-19)
(0.542186 0.198864 9.17719e-19)
(0.703939 0.292376 1.1291e-19)
(-0.0429395 -0.11175 -3.14668e-19)
(-0.0754236 -0.216524 -2.86147e-19)
(-0.073045 -0.244673 -1.20591e-18)
(-0.0445592 -0.223893 6.31554e-19)
(0.0057342 -0.171772 -1.28283e-18)
(0.0751562 -0.0985511 2.79025e-19)
(0.161535 -0.010782 3.16868e-19)
(0.261776 0.0856107 -3.232e-19)
(0.368499 0.184422 -1.80769e-19)
(0.502561 0.275772 -5.85938e-19)
(-0.0409634 -0.120354 2.42402e-19)
(-0.0790533 -0.221427 -4.30745e-20)
(-0.094718 -0.242556 -2.48615e-21)
(-0.0893254 -0.218098 -5.8176e-19)
(-0.0643291 -0.165947 1.4099e-18)
(-0.0214686 -0.0951449 -2.0906e-19)
(0.0375119 -0.0110707 -5.35135e-19)
(0.110322 0.0812168 6.34544e-19)
(0.195422 0.174412 -1.94566e-19)
(0.298393 0.252649 7.77404e-19)
(-0.0375432 -0.116861 -4.35546e-20)
(-0.0837702 -0.204563 -2.13816e-19)
(-0.120627 -0.217009 -7.86652e-20)
(-0.139945 -0.190733 -9.47111e-20)
(-0.140341 -0.141791 -2.06896e-19)
(-0.122683 -0.0772337 -6.57726e-19)
(-0.0881831 -0.00134472 7.97065e-19)
(-0.038134 0.0808151 4.32535e-19)
(0.027588 0.160205 -9.9072e-20)
(0.103489 0.218779 -4.50625e-19)
(-0.0333124 -0.0984908 2.41268e-19)
(-0.0888286 -0.165386 3.89279e-20)
(-0.146714 -0.170557 2.29704e-19)
(-0.188988 -0.146495 -2.45966e-20)
(-0.211969 -0.105644 2.03168e-19)
(-0.215769 -0.0528963 2.20786e-19)
(-0.200785 0.00832596 3.0424e-19)
(-0.167649 0.0730203 -8.50933e-19)
(-0.11765 0.132073 -1.40779e-19)
(-0.0601378 0.170221 1.88288e-19)
(-0.0294251 -0.0658969 -1.17941e-19)
(-0.0930627 -0.107437 -1.37624e-19)
(-0.167751 -0.108501 -6.95346e-20)
(-0.227474 -0.0914668 3.04475e-19)
(-0.266975 -0.0641157 1.46595e-19)
(-0.285718 -0.0293372 2.67885e-20)
(-0.283336 0.0104922 -6.38265e-20)
(-0.260584 0.0515776 -3.89037e-20)
(-0.220875 0.0872781 3.36917e-19)
(-0.172398 0.107974 -1.72063e-19)
(-0.0270948 -0.0231667 5.87908e-20)
(-0.0954464 -0.0371996 6.10802e-20)
(-0.179399 -0.0371533 -5.03722e-20)
(-0.248418 -0.0309947 -4.48358e-20)
(-0.296438 -0.0213605 -4.49925e-20)
(-0.322524 -0.00921254 -6.81935e-20)
(-0.325908 0.0045827 4.04638e-21)
(-0.307741 0.018613 8.68208e-20)
(-0.272705 0.0304733 -7.7042e-20)
(-0.227055 0.0369442 1.00307e-19)
(0.313457 -0.0380233 1.14895e-21)
(0.738077 -0.0110092 -8.75191e-22)
(0.899236 -0.00448779 -1.06522e-22)
(0.958859 -0.00169536 7.47094e-23)
(0.982084 -0.000631543 1.27731e-23)
(0.991022 -0.0002682 -9.10712e-24)
(0.995198 -0.000127831 -1.24714e-23)
(0.99739 -6.41841e-05 3.97992e-24)
(0.998478 -3.80378e-05 -3.05483e-25)
(0.999282 -1.65601e-05 2.89119e-24)
(0.315962 -0.111091 6.1272e-21)
(0.740561 -0.0332784 1.16807e-21)
(0.899865 -0.013495 1.18874e-21)
(0.959067 -0.00508934 -1.17495e-21)
(0.982146 -0.00189841 -5.05187e-23)
(0.99104 -0.000805829 4.31632e-23)
(0.995205 -0.000385267 -4.86918e-23)
(0.997393 -0.000194381 -1.18829e-23)
(0.99848 -0.000112899 -2.42138e-23)
(0.999283 -4.85237e-05 -2.49943e-24)
(0.345233 -0.176598 -2.59159e-21)
(0.748084 -0.0557841 3.21553e-22)
(0.901519 -0.0224841 -1.15868e-21)
(0.959532 -0.00846794 1.00864e-21)
(0.982276 -0.00316361 -5.95692e-23)
(0.991079 -0.00134266 3.75875e-23)
(0.99522 -0.000642337 1.78429e-23)
(0.997401 -0.00032441 -4.12551e-24)
(0.998485 -0.000187617 1.67164e-23)
(0.999286 -8.04161e-05 -3.39316e-24)
(0.420091 -0.231908 -4.73998e-21)
(0.763285 -0.07755 -1.98341e-21)
(0.904635 -0.0312704 1.13732e-21)
(0.960315 -0.0118013 -8.97776e-22)
(0.982484 -0.00442326 8.43415e-22)
(0.991138 -0.00187784 -2.46766e-22)
(0.995242 -0.000898788 1.43311e-23)
(0.997412 -0.000454133 -1.91895e-23)
(0.998493 -0.000262082 1.96414e-23)
(0.99929 -0.000112185 1.44956e-24)
(0.535441 -0.275385 1.83386e-20)
(0.786874 -0.0970313 -4.42803e-21)
(0.909367 -0.039577 -1.28406e-21)
(0.961445 -0.0150471 1.90172e-21)
(0.982776 -0.00567082 -6.13282e-22)
(0.991222 -0.00240978 -1.89508e-22)
(0.995273 -0.0011542 -1.47317e-22)
(0.997428 -0.000583368 -3.18805e-23)
(0.998503 -0.000336185 -4.6583e-23)
(0.999295 -0.000143778 -6.34386e-24)
(0.670621 -0.305295 -1.72459e-20)
(0.817193 -0.112687 8.5476e-21)
(0.915526 -0.0470839 8.51112e-23)
(0.96292 -0.0181517 -2.13155e-21)
(0.983165 -0.00689735 4.16798e-22)
(0.991336 -0.00293655 2.42234e-22)
(0.995315 -0.00140793 1.56648e-22)
(0.997448 -0.000711863 3.76484e-23)
(0.998515 -0.000409754 1.98998e-23)
(0.999302 -0.000175121 9.25785e-24)
(0.805203 -0.321041 1.62961e-20)
(0.850934 -0.123676 -3.63253e-21)
(0.92268 -0.0535494 1.44358e-21)
(0.964718 -0.021073 1.02912e-21)
(0.983664 -0.00809635 -3.88183e-22)
(0.991487 -0.00345683 1.08512e-22)
(0.995369 -0.00165973 -1.48911e-22)
(0.997474 -0.000839552 -4.54609e-23)
(0.998531 -0.000482723 7.42944e-24)
(0.999309 -0.000206165 3.1931e-24)
(0.925921 -0.32986 1.00977e-20)
(0.884531 -0.132119 -1.35496e-22)
(0.930346 -0.0593477 -4.0468e-21)
(0.966818 -0.02386 2.52648e-21)
(0.984296 -0.00926762 -6.96831e-22)
(0.991687 -0.00396868 4.57904e-22)
(0.995441 -0.00190894 2.18929e-22)
(0.997506 -0.000966284 6.54093e-23)
(0.99855 -0.000555075 5.31276e-23)
(0.999319 -0.000236903 4.00203e-24)
(1.02561 -0.346855 -3.69374e-20)
(0.916075 -0.143663 -1.4061e-21)
(0.938314 -0.0655573 2.3798e-21)